 -1.2000001E-03    1.0000000E-24
 -1.1995001E-03    1.0000000E-24
 -1.1990000E-03    1.0000000E-24
 -1.1985000E-03    1.0000000E-24
 -1.1980000E-03    1.0000000E-24
 -1.1975000E-03    1.0000000E-24
 -1.1970000E-03    5.0987525E-15
 -1.1965000E-03    6.3909964E-14
 -1.1960000E-03    4.2874314E-13
 -1.1955000E-03    2.0414291E-12
 -1.1950000E-03    7.7240271E-12
 -1.1945000E-03    2.4664683E-11
 -1.1940000E-03    6.8967790E-11
 -1.1935000E-03    1.7306452E-10
 -1.1930000E-03    3.9648856E-10
 -1.1925000E-03    8.3972362E-10
 -1.1920000E-03    1.6593592E-09
 -1.1915000E-03    3.0805822E-09
 -1.1910000E-03    5.4001834E-09
 -1.1905000E-03    8.9701384E-09
 -1.1900000E-03    1.4149108E-08
 -1.1895000E-03    2.1207876E-08
 -1.1890000E-03    3.0176079E-08
 -1.1885000E-03    4.0622862E-08
 -1.1880000E-03    5.1374514E-08
 -1.1875000E-03    6.0188256E-08
 -1.1870000E-03    6.3422810E-08
 -1.1865000E-03    5.5771675E-08
 -1.1860000E-03    3.0150588E-08
 -1.1854999E-03   -2.2147916E-08
 -1.1849999E-03   -1.1090938E-07
 -1.1845001E-03   -2.4594527E-07
 -1.1840001E-03   -4.3544887E-07
 -1.1835000E-03   -6.8373538E-07
 -1.1830000E-03   -9.8843543E-07
 -1.1825000E-03   -1.3373327E-06
 -1.1820000E-03   -1.7051793E-06
 -1.1815000E-03   -2.0509685E-06
 -1.1810000E-03   -2.3162756E-06
 -1.1805000E-03   -2.4253641E-06
 -1.1800000E-03   -2.2877650E-06
 -1.1795000E-03   -1.8039507E-06
 -1.1790000E-03   -8.7451048E-07
 -1.1785000E-03    5.8711072E-07
 -1.1780000E-03    2.6387222E-06
 -1.1775000E-03    5.2913319E-06
 -1.1770000E-03    8.4905341E-06
 -1.1765000E-03    1.2099550E-05
 -1.1760000E-03    1.5886617E-05
 -1.1755000E-03    1.9519704E-05
 -1.1750000E-03    2.2571490E-05
 -1.1745000E-03    2.4537114E-05
 -1.1740000E-03    2.4866331E-05
 -1.1735000E-03    2.3010400E-05
 -1.1730000E-03    1.8482284E-05
 -1.1725000E-03    1.0926769E-05
 -1.1720000E-03    1.9501658E-07
 -1.1715000E-03   -1.3583880E-05
 -1.1710000E-03   -2.9943263E-05
 -1.1704999E-03   -4.8040936E-05
 -1.1699999E-03   -6.6652385E-05
 -1.1695001E-03   -8.4203348E-05
 -1.1690001E-03   -9.8847275E-05
 -1.1685000E-03   -1.0858932E-04
 -1.1680000E-03   -1.1145351E-04
 -1.1675000E-03   -1.0568441E-04
 -1.1670000E-03   -8.9968496E-05
 -1.1665000E-03   -6.3655614E-05
 -1.1660000E-03   -2.6956768E-05
 -1.1655000E-03    1.8907638E-05
 -1.1650000E-03    7.1634349E-05
 -1.1645000E-03    1.2786043E-04
 -1.1640000E-03    1.8329857E-04
 -1.1635000E-03    2.3299007E-04
 -1.1630000E-03    2.7167000E-04
 -1.1625000E-03    2.9422512E-04
 -1.1620000E-03    2.9621233E-04
 -1.1615000E-03    2.7439330E-04
 -1.1610000E-03    2.2723194E-04
 -1.1605000E-03    1.5529661E-04
 -1.1600000E-03    6.1510756E-05
 -1.1595000E-03   -4.8797723E-05
 -1.1590000E-03   -1.6808286E-04
 -1.1585000E-03   -2.8701784E-04
 -1.1580000E-03   -3.9517260E-04
 -1.1575000E-03   -4.8189424E-04
 -1.1570000E-03   -5.3732545E-04
 -1.1565000E-03   -5.5347139E-04
 -1.1560000E-03   -5.2520854E-04
 -1.1555000E-03   -4.5112064E-04
 -1.1549999E-03   -3.3404911E-04
 -1.1544999E-03   -1.8126299E-04
 -1.1540001E-03   -4.1809835E-06
 -1.1535001E-03    1.8238041E-04
 -1.1530000E-03    3.6141038E-04
 -1.1525000E-03    5.1528373E-04
 -1.1520000E-03    6.2759023E-04
 -1.1515000E-03    6.8504200E-04
 -1.1510000E-03    6.7925663E-04
 -1.1505000E-03    6.0820126E-04
 -1.1500000E-03    4.7709205E-04
 -1.1495000E-03    2.9857835E-04
 -1.1490000E-03    9.2098140E-05
 -1.1485000E-03   -1.1762993E-04
 -1.1480000E-03   -3.0292023E-04
 -1.1475000E-03   -4.3608338E-04
 -1.1470000E-03   -4.9278821E-04
 -1.1465000E-03   -4.5549322E-04
 -1.1460000E-03   -3.1656586E-04
 -1.1455000E-03   -8.0689846E-05
 -1.1450000E-03    2.3381307E-04
 -1.1445000E-03    5.9505162E-04
 -1.1440000E-03    9.5921539E-04
 -1.1435000E-03    1.2738499E-03
 -1.1430000E-03    1.4826246E-03
 -1.1425000E-03    1.5312816E-03
 -1.1420000E-03    1.3742775E-03
 -1.1415000E-03    9.8149013E-04
 -1.1410000E-03    3.4426706E-04
 -1.1405000E-03   -5.1993562E-04
 -1.1399999E-03   -1.5650269E-03
 -1.1394999E-03   -2.7164409E-03
 -1.1390001E-03   -3.8743492E-03
 -1.1385001E-03   -4.9200188E-03
 -1.1380001E-03   -5.7250969E-03
 -1.1375000E-03   -6.1632576E-03
 -1.1370000E-03   -6.1233435E-03
 -1.1365000E-03   -5.5228570E-03
 -1.1360000E-03   -4.3204762E-03
 -1.1355000E-03   -2.5262064E-03
 -1.1350000E-03   -2.0783674E-04
 -1.1345000E-03    2.5074177E-03
 -1.1340000E-03    5.4368591E-03
 -1.1335000E-03    8.3521511E-03
 -1.1330000E-03    1.0994825E-02
 -1.1325000E-03    1.3096620E-02
 -1.1320000E-03    1.4403276E-02
 -1.1315000E-03    1.4699872E-02
 -1.1310000E-03    1.3835467E-02
 -1.1305000E-03    1.1744618E-02
 -1.1300000E-03    8.4633511E-03
 -1.1295000E-03    4.1374867E-03
 -1.1290000E-03   -9.7830128E-04
 -1.1285000E-03   -6.5315920E-03
 -1.1280000E-03   -1.2093509E-02
 -1.1275000E-03   -1.7189246E-02
 -1.1270000E-03   -2.1335933E-02
 -1.1265000E-03   -2.4085049E-02
 -1.1260000E-03   -2.5065877E-02
 -1.1255000E-03   -2.4026146E-02
 -1.1250000E-03   -2.0865809E-02
 -1.1244999E-03   -1.5660241E-02
 -1.1239999E-03   -8.6697871E-03
 -1.1235001E-03   -3.3356156E-04
 -1.1230001E-03    8.7533081E-03
 -1.1225000E-03    1.7878350E-02
 -1.1220000E-03    2.6264157E-02
 -1.1215000E-03    3.3130936E-02
 -1.1210000E-03    3.7764400E-02
 -1.1205000E-03    3.9583266E-02
 -1.1200000E-03    3.8200323E-02
 -1.1195000E-03    3.3471081E-02
 -1.1190000E-03    2.5524732E-02
 -1.1185000E-03    1.4773355E-02
 -1.1180000E-03    1.8970156E-03
 -1.1175000E-03   -1.2195616E-02
 -1.1170000E-03   -2.6429288E-02
 -1.1165000E-03   -3.9642859E-02
 -1.1160000E-03   -5.0682705E-02
 -1.1155000E-03   -5.8501404E-02
 -1.1150000E-03   -6.2253334E-02
 -1.1145000E-03   -6.1378531E-02
 -1.1140000E-03   -5.5666752E-02
 -1.1135000E-03   -4.5294970E-02
 -1.1130000E-03   -3.0833557E-02
 -1.1125000E-03   -1.3218865E-02
 -1.1120000E-03    6.3070990E-03
 -1.1115000E-03    2.6286300E-02
 -1.1110000E-03    4.5157202E-02
 -1.1105000E-03    6.1381415E-02
 -1.1100000E-03    7.3573992E-02
 -1.1094999E-03    8.0626197E-02
 -1.1089999E-03    8.1809536E-02
 -1.1084999E-03    7.6851264E-02
 -1.1080001E-03    6.5973520E-02
 -1.1075001E-03    4.9891323E-02
 -1.1070000E-03    2.9767947E-02
 -1.1065000E-03    7.1302094E-03
 -1.1060000E-03   -1.6250387E-02
 -1.1055000E-03   -3.8501259E-02
 -1.1050000E-03   -5.7805263E-02
 -1.1045000E-03   -7.2556712E-02
 -1.1040000E-03   -8.1503086E-02
 -1.1035000E-03   -8.3859503E-02
 -1.1030000E-03   -7.9385094E-02
 -1.1025000E-03   -6.8413496E-02
 -1.1020000E-03   -5.1833682E-02
 -1.1015000E-03   -3.1021606E-02
 -1.1010000E-03   -7.7277347E-03
 -1.1005000E-03    1.6070452E-02
 -1.1000000E-03    3.8338482E-02
 -1.0995000E-03    5.7162605E-02
 -1.0990000E-03    7.0919320E-02
 -1.0985000E-03    7.8421347E-02
 -1.0980000E-03    7.9026401E-02
 -1.0975000E-03    7.2698370E-02
 -1.0970000E-03    6.0014643E-02
 -1.0965000E-03    4.2118099E-02
 -1.0960000E-03    2.0617455E-02
 -1.0955000E-03   -2.5556050E-03
 -1.0950000E-03   -2.5319954E-02
 -1.0945000E-03   -4.5633614E-02
 -1.0939999E-03   -6.1680213E-02
 -1.0934999E-03   -7.2036102E-02
 -1.0930001E-03   -7.5802475E-02
 -1.0925001E-03   -7.2689913E-02
 -1.0920000E-03   -6.3047089E-02
 -1.0915000E-03   -4.7830470E-02
 -1.0910000E-03   -2.8517378E-02
 -1.0905000E-03   -6.9700237E-03
 -1.0900000E-03    1.4737112E-02
 -1.0895000E-03    3.4510665E-02
 -1.0890000E-03    5.0434586E-02
 -1.0885000E-03    6.0950790E-02
 -1.0880000E-03    6.5007202E-02
 -1.0875000E-03    6.2159158E-02
 -1.0870000E-03    5.2614436E-02
 -1.0865000E-03    3.7217431E-02
 -1.0860000E-03    1.7373808E-02
 -1.0855000E-03   -5.0774962E-03
 -1.0850000E-03   -2.8032931E-02
 -1.0845000E-03   -4.9317889E-02
 -1.0840000E-03   -6.6886947E-02
 -1.0835000E-03   -7.9011984E-02
 -1.0830000E-03   -8.4440544E-02
 -1.0825000E-03   -8.2509659E-02
 -1.0820000E-03   -7.3204711E-02
 -1.0815000E-03   -5.7158113E-02
 -1.0810000E-03   -3.5588466E-02
 -1.0805000E-03   -1.0186516E-02
 -1.0800000E-03    1.7040756E-02
 -1.0795000E-03    4.3952566E-02
 -1.0790000E-03    6.8465665E-02
 -1.0784999E-03    8.8736206E-02
 -1.0779999E-03    0.1033151    
 -1.0775001E-03    0.1112626    
 -1.0770001E-03    0.1122120    
 -1.0765000E-03    0.1063778    
 -1.0760000E-03    9.4508968E-02
 -1.0755000E-03    7.7794269E-02
 -1.0750000E-03    5.7729214E-02
 -1.0745000E-03    3.5960838E-02
 -1.0740000E-03    1.4125783E-02
 -1.0735000E-03   -6.3011777E-03
 -1.0730000E-03   -2.4133010E-02
 -1.0725000E-03   -3.8558524E-02
 -1.0720000E-03   -4.9184974E-02
 -1.0715000E-03   -5.6032483E-02
 -1.0710000E-03   -5.9482943E-02
 -1.0705000E-03   -6.0191087E-02
 -1.0700000E-03   -5.8969367E-02
 -1.0695000E-03   -5.6661125E-02
 -1.0690000E-03   -5.4017514E-02
 -1.0685000E-03   -5.1593013E-02
 -1.0680000E-03   -4.9671985E-02
 -1.0675000E-03   -4.8234981E-02
 -1.0670000E-03   -4.6968684E-02
 -1.0665000E-03   -4.5318119E-02
 -1.0660000E-03   -4.2574700E-02
 -1.0655000E-03   -3.7989192E-02
 -1.0650000E-03   -3.0895531E-02
 -1.0645000E-03   -2.0829817E-02
 -1.0640000E-03   -7.6290565E-03
 -1.0634999E-03    8.5037546E-03
 -1.0629999E-03    2.6977915E-02
 -1.0625001E-03    4.6841495E-02
 -1.0620001E-03    6.6855177E-02
 -1.0615001E-03    8.5606977E-02
 -1.0610000E-03    0.1016562    
 -1.0605000E-03    0.1136912    
 -1.0600000E-03    0.1206826    
 -1.0595000E-03    0.1220144    
 -1.0590000E-03    0.1175763    
 -1.0585000E-03    0.1078045    
 -1.0580000E-03    9.3663454E-02
 -1.0575000E-03    7.6568395E-02
 -1.0570000E-03    5.8253203E-02
 -1.0565000E-03    4.0596977E-02
 -1.0560000E-03    2.5426086E-02
 -1.0555000E-03    1.4313033E-02
 -1.0550000E-03    8.3944630E-03
 -1.0545000E-03    8.2296524E-03
 -1.0540000E-03    1.3717267E-02
 -1.0535000E-03    2.4082523E-02
 -1.0530000E-03    3.7939630E-02
 -1.0525000E-03    5.3426243E-02
 -1.0520000E-03    6.8398505E-02
 -1.0515000E-03    8.0667987E-02
 -1.0510000E-03    8.8256270E-02
 -1.0505000E-03    8.9639723E-02
 -1.0500000E-03    8.3956756E-02
 -1.0495000E-03    7.1152478E-02
 -1.0490000E-03    5.2041240E-02
 -1.0485000E-03    2.8275495E-02
 -1.0479999E-03    2.2189487E-03
 -1.0474999E-03   -2.3267740E-02
 -1.0470001E-03   -4.5110598E-02
 -1.0465001E-03   -6.0348749E-02
 -1.0460000E-03   -6.6471025E-02
 -1.0455000E-03   -6.1727315E-02
 -1.0450000E-03   -4.5379978E-02
 -1.0445000E-03   -1.7865049E-02
 -1.0440000E-03    1.9159226E-02
 -1.0435000E-03    6.2888391E-02
 -1.0430000E-03    0.1095719    
 -1.0425000E-03    0.1548243    
 -1.0420000E-03    0.1940217    
 -1.0415000E-03    0.2227485    
 -1.0410000E-03    0.2372523    
 -1.0405000E-03    0.2348605    
 -1.0400000E-03    0.2143174    
 -1.0395000E-03    0.1760006    
 -1.0390000E-03    0.1219930    
 -1.0385000E-03    5.5992536E-02
 -1.0380000E-03   -1.6936734E-02
 -1.0375000E-03   -9.0757549E-02
 -1.0370000E-03   -0.1589638    
 -1.0365000E-03   -0.2151532    
 -1.0360000E-03   -0.2536170    
 -1.0355000E-03   -0.2698903    
 -1.0350000E-03   -0.2612099    
 -1.0345000E-03   -0.2268337    
 -1.0340000E-03   -0.1681861    
 -1.0335000E-03   -8.8809915E-02
 -1.0329999E-03    5.8750063E-03
 -1.0324999E-03    0.1089911    
 -1.0319999E-03    0.2127651    
 -1.0315001E-03    0.3091835    
 -1.0310001E-03    0.3906842    
 -1.0305000E-03    0.4508190    
 -1.0300000E-03    0.4848267    
 -1.0295000E-03    0.4900613    
 -1.0290000E-03    0.4662339    
 -1.0285000E-03    0.4154442    
 -1.0280000E-03    0.3419951    
 -1.0275000E-03    0.2520079    
 -1.0270000E-03    0.1528713    
 -1.0265000E-03    5.2574925E-02
 -1.0260000E-03   -4.1009136E-02
 -1.0255000E-03   -0.1208313    
 -1.0250000E-03   -0.1812874    
 -1.0245000E-03   -0.2187026    
 -1.0240000E-03   -0.2316282    
 -1.0235000E-03   -0.2209260    
 -1.0230000E-03   -0.1896309    
 -1.0225000E-03   -0.1426073    
 -1.0220000E-03   -8.6032942E-02
 -1.0215000E-03   -2.6760872E-02
 -1.0210000E-03    2.8375901E-02
 -1.0205000E-03    7.3250249E-02
 -1.0200000E-03    0.1030486    
 -1.0195000E-03    0.1147415    
 -1.0190000E-03    0.1073700    
 -1.0185000E-03    8.2122415E-02
 -1.0180000E-03    4.2191811E-02
 -1.0174999E-03   -7.5674020E-03
 -1.0169999E-03   -6.1150666E-02
 -1.0165001E-03   -0.1120292    
 -1.0160001E-03   -0.1538271    
 -1.0155000E-03   -0.1809824    
 -1.0150000E-03   -0.1893233    
 -1.0145000E-03   -0.1765044    
 -1.0140000E-03   -0.1422569    
 -1.0135000E-03   -8.8430427E-02
 -1.0130000E-03   -1.8820681E-02
 -1.0125000E-03    6.1196208E-02
 -1.0120000E-03    0.1451869    
 -1.0115000E-03    0.2262871    
 -1.0110000E-03    0.2978668    
 -1.0105000E-03    0.3541680    
 -1.0100000E-03    0.3908500    
 -1.0095000E-03    0.4053879    
 -1.0090000E-03    0.3972866    
 -1.0085000E-03    0.3680891    
 -1.0080000E-03    0.3211823    
 -1.0075000E-03    0.2614219    
 -1.0070000E-03    0.1946185    
 -1.0065000E-03    0.1269385    
 -1.0060000E-03    6.4284936E-02
 -1.0055000E-03    1.1721898E-02
 -1.0050000E-03   -2.6997939E-02
 -1.0045000E-03   -4.9754556E-02
 -1.0040000E-03   -5.6199633E-02
 -1.0035000E-03   -4.7702018E-02
 -1.0030000E-03   -2.7109280E-02
 -1.0025000E-03    1.6453080E-03
 -1.0019999E-03    3.4044374E-02
 -1.0014999E-03    6.5539271E-02
 -1.0010001E-03    9.2091531E-02
 -1.0005001E-03    0.1106421    
 -1.0000000E-03    0.1194559    
 -9.9950004E-04    0.1183030    
 -9.9900004E-04    0.1084573    
 -9.9850004E-04    9.2512496E-02
 -9.9800003E-04    7.4037313E-02
 -9.9750003E-04    5.7109918E-02
 -9.9700002E-04    4.5785110E-02
 -9.9650002E-04    4.3556545E-02
 -9.9600002E-04    5.2877292E-02
 -9.9550001E-04    7.4796222E-02
 -9.9500001E-04    0.1087554    
 -9.9450001E-04    0.1525758    
 -9.9400000E-04    0.2026383    
 -9.9350000E-04    0.2542433    
 -9.9299999E-04    0.3021137    
 -9.9249999E-04    0.3409865    
 -9.9199999E-04    0.3662286    
 -9.9149998E-04    0.3744059    
 -9.9099998E-04    0.3637409    
 -9.9049998E-04    0.3344008    
 -9.8999997E-04    0.2885792    
 -9.8949997E-04    0.2303520    
 -9.8899996E-04    0.1653179    
 -9.8849996E-04    0.1000525    
 -9.8799996E-04    4.1431021E-02
 -9.8749995E-04   -4.1121617E-03
 -9.8699995E-04   -3.1306949E-02
 -9.8649994E-04   -3.6675483E-02
 -9.8600006E-04   -1.8991774E-02
 -9.8550005E-04    2.0483280E-02
 -9.8500005E-04    7.8025617E-02
 -9.8450005E-04    0.1477382    
 -9.8400004E-04    0.2220867    
 -9.8350004E-04    0.2926342    
 -9.8300003E-04    0.3509028    
 -9.8250003E-04    0.3892772    
 -9.8200003E-04    0.4018574    
 -9.8150002E-04    0.3851662    
 -9.8100002E-04    0.3386359    
 -9.8050002E-04    0.2648118    
 -9.8000001E-04    0.1692441    
 -9.7950001E-04    6.0064770E-02
 -9.7900000E-04   -5.2714966E-02
 -9.7850000E-04   -0.1581277    
 -9.7800000E-04   -0.2453049    
 -9.7749999E-04   -0.3045623    
 -9.7699999E-04   -0.3284072    
 -9.7649998E-04   -0.3123636    
 -9.7599998E-04   -0.2555279    
 -9.7549998E-04   -0.1607904    
 -9.7499997E-04   -3.4693301E-02
 -9.7450003E-04    0.1130720    
 -9.7400002E-04    0.2704870    
 -9.7350002E-04    0.4242749    
 -9.7300002E-04    0.5611156    
 -9.7250001E-04    0.6688928    
 -9.7200001E-04    0.7378507    
 -9.7150001E-04    0.7615463    
 -9.7100000E-04    0.7375014    
 -9.7050000E-04    0.6674868    
 -9.6999999E-04    0.5574052    
 -9.6949999E-04    0.4167798    
 -9.6899999E-04    0.2578948    
 -9.6849998E-04    9.4666809E-02
 -9.6799998E-04   -5.8644876E-02
 -9.6749997E-04   -0.1887645    
 -9.6700003E-04   -0.2846346    
 -9.6650003E-04   -0.3384377    
 -9.6600002E-04   -0.3463060    
 -9.6550002E-04   -0.3086481    
 -9.6500001E-04   -0.2300608    
 -9.6450001E-04   -0.1188350    
 -9.6400001E-04    1.3895288E-02
 -9.6350000E-04    0.1552774    
 -9.6300000E-04    0.2920246    
 -9.6249999E-04    0.4117340    
 -9.6199999E-04    0.5041072    
 -9.6149999E-04    0.5619507    
 -9.6099998E-04    0.5818589    
 -9.6049998E-04    0.5645115    
 -9.5999998E-04    0.5145566    
 -9.5949997E-04    0.4400949    
 -9.5900003E-04    0.3518156    
 -9.5850002E-04    0.2618756    
 -9.5800002E-04    0.1826345    
 -9.5750001E-04    0.1253749    
 -9.5700001E-04    9.9137381E-02
 -9.5650001E-04    0.1097880    
 -9.5600000E-04    0.1594130    
 -9.5550000E-04    0.2460993    
 -9.5500000E-04    0.3641235    
 -9.5449999E-04    0.5045276    
 -9.5399999E-04    0.6560216    
 -9.5349998E-04    0.8061200    
 -9.5299998E-04    0.9423959    
 -9.5249998E-04     1.053724    
 -9.5199997E-04     1.131388    
 -9.5150003E-04     1.169939    
 -9.5100002E-04     1.167718    
 -9.5050002E-04     1.127001    
 -9.5000002E-04     1.053735    
 -9.4950001E-04    0.9569243    
 -9.4900001E-04    0.8477000    
 -9.4850000E-04    0.7381998    
 -9.4800000E-04    0.6403548    
 -9.4750000E-04    0.5647165    
 -9.4699999E-04    0.5194434    
 -9.4649999E-04    0.5095453    
 -9.4599999E-04    0.5364633    
 -9.4549998E-04    0.5980204    
 -9.4499998E-04    0.6887436    
 -9.4449997E-04    0.8005177    
 -9.4400003E-04    0.9234955    
 -9.4350002E-04     1.047166    
 -9.4300002E-04     1.161464    
 -9.4250002E-04     1.257803    
 -9.4200001E-04     1.329921    
 -9.4150001E-04     1.374454    
 -9.4100001E-04     1.391183    
 -9.4050000E-04     1.382917    
 -9.4000000E-04     1.355059    
 -9.3949999E-04     1.314874    
 -9.3899999E-04     1.270570    
 -9.3849999E-04     1.230287    
 -9.3799998E-04     1.201100    
 -9.3749998E-04     1.188162    
 -9.3699998E-04     1.194080    
 -9.3649997E-04     1.218582    
 -9.3600003E-04     1.258533    
 -9.3550002E-04     1.308283    
 -9.3500002E-04     1.360323    
 -9.3450001E-04     1.406167    
 -9.3400001E-04     1.437373    
 -9.3350001E-04     1.446576    
 -9.3300000E-04     1.428442    
 -9.3250000E-04     1.380402    
 -9.3200000E-04     1.303117    
 -9.3149999E-04     1.200587    
 -9.3099999E-04     1.079901    
 -9.3049998E-04    0.9506490    
 -9.2999998E-04    0.8240446    
 -9.2949998E-04    0.7118477    
 -9.2899997E-04    0.6252045    
 -9.2850003E-04    0.5735171    
 -9.2800002E-04    0.5634656    
 -9.2750002E-04    0.5982841    
 -9.2700002E-04    0.6773683    
 -9.2650001E-04    0.7962585    
 -9.2600001E-04    0.9470004    
 -9.2550000E-04     1.118850    
 -9.2500000E-04     1.299249    
 -9.2450000E-04     1.474974    
 -9.2399999E-04     1.633339    
 -9.2349999E-04     1.763327    
 -9.2299999E-04     1.856547    
 -9.2249998E-04     1.907897    
 -9.2199998E-04     1.915901    
 -9.2149997E-04     1.882661    
 -9.2100003E-04     1.813460    
 -9.2050002E-04     1.716043    
 -9.2000002E-04     1.599689    
 -9.1950002E-04     1.474151    
 -9.1900001E-04     1.348600    
 -9.1850001E-04     1.230692    
 -9.1800001E-04     1.125847    
 -9.1750000E-04     1.036834    
 -9.1700000E-04    0.9636956    
 -9.1649999E-04    0.9040184    
 -9.1599999E-04    0.8535132    
 -9.1549999E-04    0.8068337    
 -9.1499998E-04    0.7585324    
 -9.1449998E-04    0.7040365    
 -9.1399997E-04    0.6405218    
 -9.1349997E-04    0.5675745    
 -9.1300003E-04    0.4875495    
 -9.1250002E-04    0.4055718    
 -9.1200002E-04    0.3291644    
 -9.1150001E-04    0.2675301    
 -9.1100001E-04    0.2305565    
 -9.1050001E-04    0.2276469    
 -9.1000000E-04    0.2665040    
 -9.0950000E-04    0.3520042    
 -9.0899999E-04    0.4852951    
 -9.0849999E-04    0.6632305    
 -9.0799999E-04    0.8782252    
 -9.0749998E-04     1.118569    
 -9.0699998E-04     1.369190    
 -9.0649998E-04     1.612816    
 -9.0599997E-04     1.831430    
 -9.0550003E-04     2.007881    
 -9.0500002E-04     2.127502    
 -9.0450002E-04     2.179570    
 -9.0400001E-04     2.158450    
 -9.0350001E-04     2.064305    
 -9.0300001E-04     1.903289    
 -9.0250000E-04     1.687180    
 -9.0200000E-04     1.432483    
 -9.0150000E-04     1.159062    
 -9.0099999E-04    0.8884454    
 -9.0049999E-04    0.6419381    
 -8.9999998E-04    0.4387310    
 -8.9949998E-04    0.2941884    
 -8.9899998E-04    0.2184768    
 -8.9849997E-04    0.2156727    
 -8.9800003E-04    0.2834368    
 -8.9750002E-04    0.4132907    
 -8.9700002E-04    0.5914713    
 -8.9650002E-04    0.8002810    
 -8.9600001E-04     1.019805    
 -8.9550001E-04     1.229824    
 -8.9500000E-04     1.411745    
 -8.9450000E-04     1.550349    
 -8.9400000E-04     1.635194    
 -8.9349999E-04     1.661535    
 -8.9299999E-04     1.630669    
 -8.9249999E-04     1.549683    
 -8.9199998E-04     1.430617    
 -8.9149998E-04     1.289155    
 -8.9099997E-04     1.142948    
 -8.9050003E-04     1.009767    
 -8.9000002E-04    0.9056584    
 -8.8950002E-04    0.8432841    
 -8.8900002E-04    0.8306315    
 -8.8850001E-04    0.8702022    
 -8.8800001E-04    0.9587719    
 -8.8750001E-04     1.087738    
 -8.8700000E-04     1.244018    
 -8.8650000E-04     1.411410    
 -8.8599999E-04     1.572265    
 -8.8549999E-04     1.709312    
 -8.8499999E-04     1.807449    
 -8.8449998E-04     1.855306    
 -8.8399998E-04     1.846449    
 -8.8349998E-04     1.780074    
 -8.8299997E-04     1.661157    
 -8.8250003E-04     1.500012    
 -8.8200002E-04     1.311344    
 -8.8150002E-04     1.112854    
 -8.8100001E-04    0.9235679    
 -8.8050001E-04    0.7620438    
 -8.8000001E-04    0.6446344    
 -8.7950000E-04    0.5839777    
 -8.7900000E-04    0.5878596    
 -8.7850000E-04    0.6585519    
 -8.7799999E-04    0.7926826    
 -8.7749999E-04    0.9816393    
 -8.7699998E-04     1.212453    
 -8.7649998E-04     1.469066    
 -8.7599998E-04     1.733844    
 -8.7549997E-04     1.989181    
 -8.7500003E-04     2.219038    
 -8.7450002E-04     2.410252    
 -8.7400002E-04     2.553519    
 -8.7350002E-04     2.643938    
 -8.7300001E-04     2.681111    
 -8.7250001E-04     2.668780    
 -8.7200000E-04     2.614090    
 -8.7150000E-04     2.526558    
 -8.7100000E-04     2.416878    
 -8.7049999E-04     2.295702    
 -8.6999999E-04     2.172535    
 -8.6949999E-04     2.054854    
 -8.6899998E-04     1.947551    
 -8.6849998E-04     1.852733    
 -8.6799997E-04     1.769903    
 -8.6750003E-04     1.696468    
 -8.6700002E-04     1.628507    
 -8.6650002E-04     1.561685    
 -8.6600002E-04     1.492207    
 -8.6550001E-04     1.417669    
 -8.6500001E-04     1.337711    
 -8.6450001E-04     1.254380    
 -8.6400000E-04     1.172149    
 -8.6350000E-04     1.097592    
 -8.6299999E-04     1.038743    
 -8.6249999E-04     1.004203    
 -8.6199999E-04     1.002111    
 -8.6149998E-04     1.039090    
 -8.6099998E-04     1.119296    
 -8.6049997E-04     1.243688    
 -8.5999997E-04     1.409612    
 -8.5950003E-04     1.610759    
 -8.5900002E-04     1.837512    
 -8.5850002E-04     2.077669    
 -8.5800001E-04     2.317461    
 -8.5750001E-04     2.542766    
 -8.5700001E-04     2.740406    
 -8.5650000E-04     2.899368    
 -8.5600000E-04     3.011842    
 -8.5549999E-04     3.073938    
 -8.5499999E-04     3.086023    
 -8.5449999E-04     3.052619    
 -8.5399998E-04     2.981888    
 -8.5349998E-04     2.884733    
 -8.5299998E-04     2.773630    
 -8.5249997E-04     2.661300    
 -8.5200003E-04     2.559372    
 -8.5150002E-04     2.477182    
 -8.5100002E-04     2.420825    
 -8.5050002E-04     2.392598    
 -8.5000001E-04     2.390852    
 -8.4950001E-04     2.410321    
 -8.4900000E-04     2.442851    
 -8.4850000E-04     2.478483    
 -8.4800000E-04     2.506754    
 -8.4749999E-04     2.518083    
 -8.4699999E-04     2.505072    
 -8.4649998E-04     2.463594    
 -8.4599998E-04     2.393520    
 -8.4549998E-04     2.298997    
 -8.4499997E-04     2.188251    
 -8.4450003E-04     2.072893    
 -8.4400002E-04     1.966808    
 -8.4350002E-04     1.884740    
 -8.4300002E-04     1.840689    
 -8.4250001E-04     1.846325    
 -8.4200001E-04     1.909551    
 -8.4150000E-04     2.033409    
 -8.4100000E-04     2.215422    
 -8.4050000E-04     2.447482    
 -8.3999999E-04     2.716300    
 -8.3949999E-04     3.004394    
 -8.3899999E-04     3.291522    
 -8.3849998E-04     3.556449    
 -8.3799998E-04     3.778856    
 -8.3749997E-04     3.941222    
 -8.3700003E-04     4.030490    
 -8.3650002E-04     4.039345    
 -8.3600002E-04     3.966984    
 -8.3550002E-04     3.819289    
 -8.3500001E-04     3.608385    
 -8.3450001E-04     3.351620    
 -8.3400001E-04     3.070065    
 -8.3350000E-04     2.786670    
 -8.3300000E-04     2.524262    
 -8.3249999E-04     2.303575    
 -8.3199999E-04     2.141488    
 -8.3149999E-04     2.049658    
 -8.3099998E-04     2.033658    
 -8.3049998E-04     2.092699    
 -8.2999998E-04     2.219956    
 -8.2949997E-04     2.403453    
 -8.2900003E-04     2.627401    
 -8.2850002E-04     2.873852    
 -8.2800002E-04     3.124502    
 -8.2750001E-04     3.362443    
 -8.2700001E-04     3.573702    
 -8.2650001E-04     3.748411    
 -8.2600000E-04     3.881500    
 -8.2550000E-04     3.972852    
 -8.2500000E-04     4.026926    
 -8.2449999E-04     4.051895    
 -8.2399999E-04     4.058414    
 -8.2349998E-04     4.058157    
 -8.2299998E-04     4.062284    
 -8.2249998E-04     4.080017    
 -8.2199997E-04     4.117481    
 -8.2150003E-04     4.176923    
 -8.2100002E-04     4.256417    
 -8.2050002E-04     4.350056    
 -8.2000002E-04     4.448633    
 -8.1950001E-04     4.540718    
 -8.1900001E-04     4.614022    
 -8.1850000E-04     4.656890    
 -8.1800000E-04     4.659762    
 -8.1750000E-04     4.616445    
 -8.1699999E-04     4.525043    
 -8.1649999E-04     4.388459    
 -8.1599999E-04     4.214386    
 -8.1549998E-04     4.014803    
 -8.1499998E-04     3.805010    
 -8.1449997E-04     3.602297    
 -8.1400003E-04     3.424390    
 -8.1350002E-04     3.287820    
 -8.1300002E-04     3.206383    
 -8.1250002E-04     3.189850    
 -8.1200001E-04     3.243047    
 -8.1150001E-04     3.365409    
 -8.1100001E-04     3.551032    
 -8.1050000E-04     3.789231    
 -8.1000000E-04     4.065531    
 -8.0949999E-04     4.362993    
 -8.0899999E-04     4.663743    
 -8.0849999E-04     4.950541    
 -8.0799998E-04     5.208239    
 -8.0749998E-04     5.424995    
 -8.0699997E-04     5.593112    
 -8.0649997E-04     5.709455    
 -8.0600003E-04     5.775393    
 -8.0550002E-04     5.796317    
 -8.0500002E-04     5.780777    
 -8.0450001E-04     5.739358    
 -8.0400001E-04     5.683416    
 -8.0350001E-04     5.623819    
 -8.0300000E-04     5.569825    
 -8.0250000E-04     5.528210    
 -8.0200000E-04     5.502735    
 -8.0149999E-04     5.493999    
 -8.0099999E-04     5.499670    
 -8.0049998E-04     5.515059    
 -7.9999998E-04     5.533967    
 -7.9949998E-04     5.549676    
 -7.9899997E-04     5.555988    
 -7.9850003E-04     5.548174    
 -7.9800002E-04     5.523722    
 -7.9750002E-04     5.482802    
 -7.9700002E-04     5.428401    
 -7.9650001E-04     5.366097    
 -7.9600001E-04     5.303516    
 -7.9550000E-04     5.249526    
 -7.9500000E-04     5.213264    
 -7.9450000E-04     5.203108    
 -7.9399999E-04     5.225701    
 -7.9349999E-04     5.285160    
 -7.9299998E-04     5.382528    
 -7.9249998E-04     5.515559    
 -7.9199998E-04     5.678847    
 -7.9149997E-04     5.864281    
 -7.9100003E-04     6.061791    
 -7.9050002E-04     6.260287    
 -7.9000002E-04     6.448707    
 -7.8950002E-04     6.617042    
 -7.8900001E-04     6.757244    
 -7.8850001E-04     6.863922    
 -7.8800000E-04     6.934741    
 -7.8750000E-04     6.970505    
 -7.8700000E-04     6.974919    
 -7.8649999E-04     6.954055    
 -7.8599999E-04     6.915601    
 -7.8549999E-04     6.867977    
 -7.8499998E-04     6.819421    
 -7.8449998E-04     6.777151    
 -7.8399997E-04     6.746693    
 -7.8350003E-04     6.731450    
 -7.8300002E-04     6.732548    
 -7.8250002E-04     6.748974    
 -7.8200002E-04     6.777977    
 -7.8150001E-04     6.815677    
 -7.8100001E-04     6.857788    
 -7.8050001E-04     6.900383    
 -7.8000000E-04     6.940581    
 -7.7950000E-04     6.977073    
 -7.7899999E-04     7.010428    
 -7.7849999E-04     7.043118    
 -7.7799999E-04     7.079266    
 -7.7749998E-04     7.124150    
 -7.7699998E-04     7.183498    
 -7.7649998E-04     7.262681    
 -7.7599997E-04     7.365888    
 -7.7550003E-04     7.495394    
 -7.7500002E-04     7.651015    
 -7.7450002E-04     7.829818    
 -7.7400001E-04     8.026145    
 -7.7350001E-04     8.231956    
 -7.7300001E-04     8.437466    
 -7.7250000E-04     8.632012    
 -7.7200000E-04     8.805081    
 -7.7150000E-04     8.947356    
 -7.7099999E-04     9.051697    
 -7.7049999E-04     9.113923    
 -7.6999998E-04     9.133320    
 -7.6949998E-04     9.112796    
 -7.6899998E-04     9.058667    
 -7.6849997E-04     8.980085    
 -7.6800003E-04     8.888161    
 -7.6750002E-04     8.794868    
 -7.6700002E-04     8.711856    
 -7.6650002E-04     8.649274    
 -7.6600001E-04     8.614764    
 -7.6550001E-04     8.612712    
 -7.6500000E-04     8.643851    
 -7.6450000E-04     8.705269    
 -7.6400000E-04     8.790812    
 -7.6349999E-04     8.891864    
 -7.6299999E-04     8.998397    
 -7.6249999E-04     9.100202    
 -7.6199998E-04     9.188148    
 -7.6149998E-04     9.255341    
 -7.6099997E-04     9.298032    
 -7.6050003E-04     9.316198    
 -7.6000002E-04     9.313688    
 -7.5950002E-04     9.297929    
 -7.5900002E-04     9.279201    
 -7.5850001E-04     9.269564    
 -7.5800001E-04     9.281528    
 -7.5750001E-04     9.326614    
 -7.5700000E-04     9.413966    
 -7.5650000E-04     9.549150    
 -7.5599999E-04     9.733298    
 -7.5549999E-04     9.962677    
 -7.5499999E-04     10.22877    
 -7.5449998E-04     10.51882    
 -7.5399998E-04     10.81693    
 -7.5349997E-04     11.10538    
 -7.5299997E-04     11.36630    
 -7.5250003E-04     11.58336    
 -7.5200002E-04     11.74336    
 -7.5150002E-04     11.83756    
 -7.5100001E-04     11.86260    
 -7.5050001E-04     11.82092    
 -7.5000001E-04     11.72063    
 -7.4950000E-04     11.57482    
 -7.4900000E-04     11.40042    
 -7.4850000E-04     11.21664    
 -7.4799999E-04     11.04324    
 -7.4749999E-04     10.89872    
 -7.4699998E-04     10.79864    
 -7.4649998E-04     10.75424    
 -7.4599998E-04     10.77151    