 -1.2000001E-03    1.0000000E-24
 -1.1995001E-03    1.0000000E-24
 -1.1990000E-03    1.0000000E-24
 -1.1985000E-03    1.0000000E-24
 -1.1980000E-03    1.0000000E-24
 -1.1975000E-03    1.0000000E-24
 -1.1970000E-03    1.0000000E-24
 -1.1965000E-03    1.0000000E-24
 -1.1960000E-03    1.0000000E-24
 -1.1955000E-03    2.4254191E-20
 -1.1950000E-03    8.0844969E-20
 -1.1945000E-03    1.3743575E-19
 -1.1940000E-03   -5.8207562E-19
 -1.1935000E-03   -2.6678413E-19
 -1.1930000E-03    3.1529157E-18
 -1.1925000E-03    1.2781432E-17
 -1.1920000E-03    9.9923153E-18
 -1.1915000E-03    7.2031980E-18
 -1.1910000E-03   -1.2142765E-17
 -1.1905000E-03   -1.4931881E-17
 -1.1900000E-03    1.1473378E-16
 -1.1895000E-03    2.4439945E-16
 -1.1890000E-03    3.7406510E-16
 -1.1885000E-03    5.6995815E-16
 -1.1880000E-03    7.9896489E-16
 -1.1875000E-03    9.7830103E-16
 -1.1870000E-03    1.0251824E-15
 -1.1865000E-03    9.3960910E-16
 -1.1860000E-03    8.5403574E-16
 -1.1854999E-03    2.3864333E-16
 -1.1849999E-03    4.1797947E-16
 -1.1845001E-03    5.9731562E-16
 -1.1840001E-03    7.7665176E-16
 -1.1835000E-03   -1.0365020E-16
 -1.1830000E-03   -9.8395222E-16
 -1.1825000E-03   -8.0461608E-16
 -1.1820000E-03    1.4939963E-15
 -1.1815000E-03    5.9118851E-15
 -1.1810000E-03    8.2104970E-15
 -1.1805000E-03    8.9196525E-15
 -1.1800000E-03    4.3306169E-15
 -1.1795000E-03   -2.5841832E-16
 -1.1790000E-03   -9.0860055E-15
 -1.1785000E-03   -3.0629247E-14
 -1.1780000E-03   -4.3695387E-14
 -1.1775000E-03   -4.8284422E-14
 -1.1770000E-03   -3.5919245E-14
 -1.1765000E-03   -2.3554069E-14
 -1.1760000E-03   -1.1188891E-14
 -1.1755000E-03    3.5084708E-14
 -1.1750000E-03    5.5926990E-14
 -1.1745000E-03    1.2975119E-13
 -1.1740000E-03    2.5867654E-13
 -1.1735000E-03    4.6389585E-13
 -1.1730000E-03    6.6911515E-13
 -1.1725000E-03    8.0651761E-13
 -1.1720000E-03    1.1473706E-12
 -1.1715000E-03    1.4882236E-12
 -1.1710000E-03    1.6934429E-12
 -1.1704999E-03    1.5934864E-12
 -1.1699999E-03    1.1883541E-12
 -1.1695001E-03    6.4758816E-13
 -1.1690001E-03    1.0682216E-13
 -1.1685000E-03   -4.1495317E-13
 -1.1680000E-03   -1.1740874E-12
 -1.1675000E-03   -1.7975879E-12
 -1.1670000E-03   -2.7601727E-12
 -1.1665000E-03   -3.8583910E-12
 -1.1660000E-03   -4.8209756E-12
 -1.1655000E-03   -4.5628575E-12
 -1.1650000E-03   -4.0334719E-12
 -1.1645000E-03   -2.6902842E-12
 -1.1640000E-03   -1.3470965E-12
 -1.1635000E-03    6.7425948E-13
 -1.1630000E-03    2.7931023E-12
 -1.1625000E-03    5.7257476E-12
 -1.1620000E-03    8.9296600E-12
 -1.1615000E-03    1.2133572E-11
 -1.1610000E-03    1.5066217E-11
 -1.1605000E-03    1.7185061E-11
 -1.1600000E-03    1.7405032E-11
 -1.1595000E-03    1.7082469E-11
 -1.1590000E-03    1.5946104E-11
 -1.1585000E-03    1.3453402E-11
 -1.1580000E-03    1.0689432E-11
 -1.1575000E-03    8.5019058E-12
 -1.1570000E-03    8.8914197E-12
 -1.1565000E-03    1.3349944E-11
 -1.1560000E-03    2.3233816E-11
 -1.1555000E-03    3.6372894E-11
 -1.1549999E-03    5.0597044E-11
 -1.1544999E-03    6.6991329E-11
 -1.1540001E-03    8.1215479E-11
 -1.1535001E-03    9.1099350E-11
 -1.1530000E-03    9.3387735E-11
 -1.1525000E-03    8.8623171E-11
 -1.1520000E-03    7.7348190E-11
 -1.1515000E-03    5.8579447E-11
 -1.1510000E-03    3.4927894E-11
 -1.1505000E-03    6.9360611E-12
 -1.1500000E-03   -2.2140840E-11
 -1.1495000E-03   -5.7728156E-11
 -1.1490000E-03   -9.1145334E-11
 -1.1485000E-03   -1.2022223E-10
 -1.1480000E-03   -1.4929914E-10
 -1.1475000E-03   -1.6752535E-10
 -1.1470000E-03   -1.7490087E-10
 -1.1465000E-03   -1.6925555E-10
 -1.1460000E-03   -1.5384460E-10
 -1.1455000E-03   -1.2693871E-10
 -1.1450000E-03   -1.0220295E-10
 -1.1445000E-03   -8.1807464E-11
 -1.1440000E-03   -4.8391149E-11
 -1.1435000E-03   -6.2942741E-12
 -1.1430000E-03    3.1462319E-11
 -1.1425000E-03    6.0538359E-11
 -1.1420000E-03    1.0697551E-10
 -1.1415000E-03    1.4473210E-10
 -1.1410000E-03    1.9116925E-10
 -1.1405000E-03    2.3109598E-10
 -1.1399999E-03    2.6125707E-10
 -1.1394999E-03    2.8138128E-10
 -1.1390001E-03    3.0150549E-10
 -1.1385001E-03    3.1511929E-10
 -1.1380001E-03    3.2439282E-10
 -1.1375000E-03    3.3800662E-10
 -1.1370000E-03    3.6030098E-10
 -1.1365000E-03    3.7391479E-10
 -1.1360000E-03    3.6148692E-10
 -1.1355000E-03    3.3603823E-10
 -1.1350000E-03    3.0190897E-10
 -1.1345000E-03    2.8080055E-10
 -1.1340000E-03    2.6186225E-10
 -1.1335000E-03    2.4346650E-10
 -1.1330000E-03    2.3483637E-10
 -1.1325000E-03    2.2837639E-10
 -1.1320000E-03    2.2191640E-10
 -1.1315000E-03    2.2413697E-10
 -1.1310000E-03    1.9597560E-10
 -1.1305000E-03    1.6781422E-10
 -1.1300000E-03    1.0493063E-10
 -1.1295000E-03    2.4685920E-11
 -1.1290000E-03   -7.7260170E-11
 -1.1285000E-03   -1.7486598E-10
 -1.1280000E-03   -2.7247180E-10
 -1.1275000E-03   -3.1365399E-10
 -1.1270000E-03   -2.8322161E-10
 -1.1265000E-03   -1.8117464E-10
 -1.1260000E-03   -6.1766578E-11
 -1.1255000E-03    8.8023436E-11
 -1.1250000E-03    2.8555652E-10
 -1.1244999E-03    4.9611043E-10
 -1.1239999E-03    7.1968514E-10
 -1.1235001E-03    9.5628072E-10
 -1.1230001E-03    1.1451332E-09
 -1.1225000E-03    1.3209649E-09
 -1.1220000E-03    1.4403729E-09
 -1.1215000E-03    1.4583270E-09
 -1.1210000E-03    1.3645189E-09
 -1.1205000E-03    1.2924123E-09
 -1.1200000E-03    1.2767292E-09
 -1.1195000E-03    1.2480252E-09
 -1.1190000E-03    1.2063005E-09
 -1.1185000E-03    1.1385340E-09
 -1.1180000E-03    9.6660102E-10
 -1.1175000E-03    8.3807072E-10
 -1.1170000E-03    6.4226613E-10
 -1.1165000E-03    4.1607956E-10
 -1.1160000E-03    9.4949437E-11
 -1.1155000E-03   -2.6890529E-10
 -1.1150000E-03   -5.3293364E-10
 -1.1145000E-03   -7.8068596E-10
 -1.1140000E-03   -1.0197577E-09
 -1.1135000E-03   -9.7454134E-10
 -1.1130000E-03   -8.2515828E-10
 -1.1125000E-03   -6.0958594E-10
 -1.1120000E-03   -3.2782441E-10
 -1.1115000E-03   -1.3510831E-11
 -1.1110000E-03    2.9594163E-10
 -1.1105000E-03    5.7474092E-10
 -1.1100000E-03    9.0399593E-10
 -1.1094999E-03    1.3086633E-09
 -1.1089999E-03    1.7987798E-09
 -1.1084999E-03    2.2027689E-09
 -1.1080001E-03    2.5362286E-09
 -1.1075001E-03    2.6049314E-09
 -1.1070000E-03    2.5629570E-09
 -1.1065000E-03    2.5795763E-09
 -1.1060000E-03    2.5137303E-09
 -1.1055000E-03    2.4695859E-09
 -1.1050000E-03    2.2995734E-09
 -1.1045000E-03    2.1121997E-09
 -1.1040000E-03    1.8206594E-09
 -1.1035000E-03    1.3034247E-09
 -1.1030000E-03    7.9659979E-10
 -1.1025000E-03    3.4836858E-10
 -1.1020000E-03   -1.4326532E-10
 -1.1015000E-03   -9.1267705E-10
 -1.1010000E-03   -1.7688944E-09
 -1.1005000E-03   -2.6598339E-09
 -1.1000000E-03   -3.2382734E-09
 -1.0995000E-03   -3.7299075E-09
 -1.0990000E-03   -3.9524441E-09
 -1.0985000E-03   -3.9666475E-09
 -1.0980000E-03   -3.7638372E-09
 -1.0975000E-03   -3.1660616E-09
 -1.0970000E-03   -2.2015325E-09
 -1.0965000E-03   -7.1725514E-10
 -1.0960000E-03    1.0621611E-09
 -1.0955000E-03    2.9283829E-09
 -1.0950000E-03    4.7425215E-09
 -1.0945000E-03    6.4351324E-09
 -1.0939999E-03    8.1277429E-09
 -1.0934999E-03    9.4210479E-09
 -1.0930001E-03    1.0193520E-08
 -1.0925001E-03    1.0462520E-08
 -1.0920000E-03    9.7940198E-09
 -1.0915000E-03    8.2053813E-09
 -1.0910000E-03    5.6271592E-09
 -1.0905000E-03    2.2590063E-09
 -1.0900000E-03   -1.7702568E-09
 -1.0895000E-03   -6.1554228E-09
 -1.0890000E-03   -1.0505866E-08
 -1.0885000E-03   -1.4613255E-08
 -1.0880000E-03   -1.8165087E-08
 -1.0875000E-03   -2.1126642E-08
 -1.0870000E-03   -2.3115975E-08
 -1.0865000E-03   -2.3473364E-08
 -1.0860000E-03   -2.2407141E-08
 -1.0855000E-03   -2.0125640E-08
 -1.0850000E-03   -1.6489974E-08
 -1.0845000E-03   -1.1812641E-08
 -1.0840000E-03   -6.4929462E-09
 -1.0835000E-03   -7.3054363E-10
 -1.0830000E-03    4.8452264E-09
 -1.0825000E-03    9.8480797E-09
 -1.0820000E-03    1.3948155E-08
 -1.0815000E-03    1.7006563E-08
 -1.0810000E-03    1.8398305E-08
 -1.0805000E-03    1.8123380E-08
 -1.0800000E-03    1.6459566E-08
 -1.0795000E-03    1.3129087E-08
 -1.0790000E-03    8.6874969E-09
 -1.0784999E-03    3.2736835E-09
 -1.0779999E-03   -2.4873521E-09
 -1.0775001E-03   -7.6928321E-09
 -1.0770001E-03   -1.1648313E-08
 -1.0765000E-03   -1.4434089E-08
 -1.0760000E-03   -1.5162573E-08
 -1.0755000E-03   -1.3668835E-08
 -1.0750000E-03   -1.0022319E-08
 -1.0745000E-03   -4.3619144E-09
 -1.0740000E-03    2.6873788E-09
 -1.0735000E-03    1.0570005E-08
 -1.0730000E-03    1.8730411E-08
 -1.0725000E-03    2.6335261E-08
 -1.0720000E-03    3.2829000E-08
 -1.0715000E-03    3.7447737E-08
 -1.0710000E-03    3.9670642E-08
 -1.0705000E-03    3.9549796E-08
 -1.0700000E-03    3.6937632E-08
 -1.0695000E-03    3.1764703E-08
 -1.0690000E-03    2.4595247E-08
 -1.0685000E-03    1.6036902E-08
 -1.0680000E-03    6.3674452E-09
 -1.0675000E-03   -3.5797880E-09
 -1.0670000E-03   -1.3040911E-08
 -1.0665000E-03   -2.1564533E-08
 -1.0660000E-03   -2.8386768E-08
 -1.0655000E-03   -3.2882614E-08
 -1.0650000E-03   -3.5329847E-08
 -1.0645000E-03   -3.5502776E-08
 -1.0640000E-03   -3.3522927E-08
 -1.0634999E-03   -2.9433703E-08
 -1.0629999E-03   -2.3619220E-08
 -1.0625001E-03   -1.7014806E-08
 -1.0620001E-03   -9.9590025E-09
 -1.0615001E-03   -2.5386173E-09
 -1.0610000E-03    4.2046846E-09
 -1.0605000E-03    9.4896535E-09
 -1.0600000E-03    1.3524622E-08
 -1.0595000E-03    1.5858202E-08
 -1.0590000E-03    1.6781192E-08
 -1.0585000E-03    1.5953965E-08
 -1.0580000E-03    1.3944013E-08
 -1.0575000E-03    1.1291699E-08
 -1.0570000E-03    8.4484135E-09
 -1.0565000E-03    5.2058224E-09
 -1.0560000E-03    1.9545505E-09
 -1.0555000E-03   -7.4116580E-10
 -1.0550000E-03   -3.1757874E-09
 -1.0545000E-03   -4.6946105E-09
 -1.0540000E-03   -5.6057949E-09
 -1.0535000E-03   -5.7010068E-09
 -1.0530000E-03   -4.3899688E-09
 -1.0525000E-03   -2.5580977E-09
 -1.0520000E-03   -3.4428238E-10
 -1.0515000E-03    2.5986995E-09
 -1.0510000E-03    5.9583480E-09
 -1.0505000E-03    9.8041077E-09
 -1.0500000E-03    1.3441534E-08
 -1.0495000E-03    1.7408823E-08
 -1.0490000E-03    2.1072292E-08
 -1.0485000E-03    2.4613147E-08
 -1.0479999E-03    2.7772058E-08
 -1.0474999E-03    2.9976110E-08
 -1.0470001E-03    3.0721829E-08
 -1.0465001E-03    3.0738381E-08
 -1.0460000E-03    3.0511877E-08
 -1.0455000E-03    2.9938150E-08
 -1.0450000E-03    2.8218590E-08
 -1.0445000E-03    2.5978197E-08
 -1.0440000E-03    2.3251692E-08
 -1.0435000E-03    1.9657133E-08
 -1.0430000E-03    1.4847295E-08
 -1.0425000E-03    9.2909289E-09
 -1.0420000E-03    1.9637301E-09
 -1.0415000E-03   -7.1494921E-09
 -1.0410000E-03   -1.7755770E-08
 -1.0405000E-03   -3.0428019E-08
 -1.0400000E-03   -4.5079435E-08
 -1.0395000E-03   -6.1466963E-08
 -1.0390000E-03   -7.8826716E-08
 -1.0385000E-03   -9.6464241E-08
 -1.0380000E-03   -1.1406705E-07
 -1.0375000E-03   -1.2920458E-07
 -1.0370000E-03   -1.4073099E-07
 -1.0365000E-03   -1.4812547E-07
 -1.0360000E-03   -1.5065882E-07
 -1.0355000E-03   -1.4853940E-07
 -1.0350000E-03   -1.4086443E-07
 -1.0345000E-03   -1.2800282E-07
 -1.0340000E-03   -1.0965510E-07
 -1.0335000E-03   -8.6758781E-08
 -1.0329999E-03   -6.0858987E-08
 -1.0324999E-03   -3.3431412E-08
 -1.0319999E-03   -6.2121721E-09
 -1.0315001E-03    1.9305681E-08
 -1.0310001E-03    4.2045755E-08
 -1.0305000E-03    5.9976799E-08
 -1.0300000E-03    7.3098818E-08
 -1.0295000E-03    8.0265977E-08
 -1.0290000E-03    8.1669242E-08
 -1.0285000E-03    7.7936875E-08
 -1.0280000E-03    7.0215791E-08
 -1.0275000E-03    5.9460856E-08
 -1.0270000E-03    4.6744116E-08
 -1.0265000E-03    3.4105501E-08
 -1.0260000E-03    2.2285029E-08
 -1.0255000E-03    1.3094765E-08
 -1.0250000E-03    7.3420012E-09
 -1.0245000E-03    5.1309041E-09
 -1.0240000E-03    6.3746683E-09
 -1.0235000E-03    1.1125376E-08
 -1.0230000E-03    1.9174696E-08
 -1.0225000E-03    3.0314293E-08
 -1.0220000E-03    4.3849724E-08
 -1.0215000E-03    5.8253210E-08
 -1.0210000E-03    7.2639338E-08
 -1.0205000E-03    8.5324075E-08
 -1.0200000E-03    9.4666795E-08
 -1.0195000E-03    9.8193546E-08
 -1.0190000E-03    9.5331409E-08
 -1.0185000E-03    8.5177604E-08
 -1.0180000E-03    6.7940462E-08
 -1.0174999E-03    4.3828322E-08
 -1.0169999E-03    1.3327291E-08
 -1.0165001E-03   -2.0993184E-08
 -1.0160001E-03   -5.7396988E-08
 -1.0155000E-03   -9.3384131E-08
 -1.0150000E-03   -1.2614211E-07
 -1.0145000E-03   -1.5313620E-07
 -1.0140000E-03   -1.7221362E-07
 -1.0135000E-03   -1.8094381E-07
 -1.0130000E-03   -1.7852818E-07
 -1.0125000E-03   -1.6458478E-07
 -1.0120000E-03   -1.4022470E-07
 -1.0115000E-03   -1.0628129E-07
 -1.0110000E-03   -6.4421215E-08
 -1.0105000E-03   -1.7700032E-08
 -1.0100000E-03    3.1660043E-08
 -1.0095000E-03    7.9978449E-08
 -1.0090000E-03    1.2413020E-07
 -1.0085000E-03    1.6144166E-07
 -1.0080000E-03    1.8880522E-07
 -1.0075000E-03    2.0430244E-07
 -1.0070000E-03    2.0598023E-07
 -1.0065000E-03    1.9342190E-07
 -1.0060000E-03    1.6683579E-07
 -1.0055000E-03    1.2774969E-07
 -1.0050000E-03    7.9080252E-08
 -1.0045000E-03    2.4021926E-08
 -1.0040000E-03   -3.3675292E-08
 -1.0035000E-03   -8.9844733E-08
 -1.0030000E-03   -1.4011140E-07
 -1.0025000E-03   -1.8246139E-07
 -1.0019999E-03   -2.1456833E-07
 -1.0014999E-03   -2.3534714E-07
 -1.0010001E-03   -2.4234123E-07
 -1.0005001E-03   -2.3593255E-07
 -1.0000000E-03   -2.1563497E-07
 -9.9950004E-04   -1.8408740E-07
 -9.9900004E-04   -1.4267872E-07
 -9.9850004E-04   -9.3839475E-08
 -9.9800003E-04   -4.0347462E-08
 -9.9750003E-04    1.4255662E-08
 -9.9700002E-04    6.5872676E-08
 -9.9650002E-04    1.1323623E-07
 -9.9600002E-04    1.5270915E-07
 -9.9550001E-04    1.8405707E-07
 -9.9500001E-04    2.0505777E-07
 -9.9450001E-04    2.1633625E-07
 -9.9400000E-04    2.1823972E-07
 -9.9350000E-04    2.1125430E-07
 -9.9299999E-04    1.9593556E-07
 -9.9249999E-04    1.7228348E-07
 -9.9199999E-04    1.4238140E-07
 -9.9149998E-04    1.0643765E-07
 -9.9099998E-04    6.5702238E-08
 -9.9049998E-04    2.0591820E-08
 -9.8999997E-04   -2.7808532E-08
 -9.8949997E-04   -7.5444994E-08
 -9.8899996E-04   -1.2085923E-07
 -9.8849996E-04   -1.6280124E-07
 -9.8799996E-04   -1.9870160E-07
 -9.8749995E-04   -2.2640749E-07
 -9.8699995E-04   -2.4411338E-07
 -9.8649994E-04   -2.5056929E-07
 -9.8600006E-04   -2.4348353E-07
 -9.8550005E-04   -2.2459221E-07
 -9.8500005E-04   -1.9299256E-07
 -9.8450005E-04   -1.4962208E-07
 -9.8400004E-04   -9.4550202E-08
 -9.8350004E-04   -2.9964440E-08
 -9.8300003E-04    4.0871321E-08
 -9.8250003E-04    1.1490152E-07
 -9.8200003E-04    1.8865396E-07
 -9.8150002E-04    2.5698972E-07
 -9.8100002E-04    3.1588104E-07
 -9.8050002E-04    3.6005014E-07
 -9.8000001E-04    3.8769147E-07
 -9.7950001E-04    3.9533279E-07
 -9.7900000E-04    3.8186300E-07
 -9.7850000E-04    3.4769877E-07
 -9.7800000E-04    2.9589566E-07
 -9.7749999E-04    2.2891894E-07
 -9.7699999E-04    1.5160366E-07
 -9.7649998E-04    6.9184210E-08
 -9.7599998E-04   -1.2471347E-08
 -9.7549998E-04   -8.5932456E-08
 -9.7499997E-04   -1.4522689E-07
 -9.7450003E-04   -1.8771578E-07
 -9.7400002E-04   -2.0895467E-07
 -9.7350002E-04   -2.0588800E-07
 -9.7300002E-04   -1.8087690E-07
 -9.7250001E-04   -1.3656023E-07
 -9.7200001E-04   -7.6549121E-08
 -9.7150001E-04   -5.4268909E-09
 -9.7100000E-04    6.7917561E-08
 -9.7050000E-04    1.3615784E-07
 -9.6999999E-04    1.9397278E-07
 -9.6949999E-04    2.3466967E-07
 -9.6899999E-04    2.5453323E-07
 -9.6849998E-04    2.5196624E-07
 -9.6799998E-04    2.2606591E-07
 -9.6749997E-04    1.7836003E-07
 -9.6700003E-04    1.1384859E-07
 -9.6650003E-04    3.8642710E-08
 -9.6600002E-04   -4.1285389E-08
 -9.6550002E-04   -1.1760238E-07
 -9.6500001E-04   -1.8621103E-07
 -9.6450001E-04   -2.3898633E-07
 -9.6400001E-04   -2.7190055E-07
 -9.6350000E-04   -2.8193281E-07
 -9.6300000E-04   -2.6627063E-07
 -9.6249999E-04   -2.2409805E-07
 -9.6199999E-04   -1.5911296E-07
 -9.6149999E-04   -7.6419539E-08
 -9.6099998E-04    1.7107219E-08
 -9.6049998E-04    1.1243954E-07
 -9.5999998E-04    2.0086213E-07
 -9.5949997E-04    2.7605557E-07
 -9.5900003E-04    3.2965178E-07
 -9.5850002E-04    3.5574800E-07
 -9.5800002E-04    3.5038587E-07
 -9.5750001E-04    3.1391264E-07
 -9.5700001E-04    2.4806440E-07
 -9.5650001E-04    1.5638284E-07
 -9.5600000E-04    4.6506827E-08
 -9.5550000E-04   -7.5313622E-08
 -9.5500000E-04   -1.9921741E-07
 -9.5449999E-04   -3.1645453E-07
 -9.5399999E-04   -4.1591386E-07
 -9.5349998E-04   -4.8905378E-07
 -9.5299998E-04   -5.3198534E-07
 -9.5249998E-04   -5.3779883E-07
 -9.5199997E-04   -5.1060886E-07
 -9.5150003E-04   -4.5159598E-07
 -9.5100002E-04   -3.6456228E-07
 -9.5050002E-04   -2.5482024E-07
 -9.5000002E-04   -1.3077265E-07
 -9.4950001E-04    4.2471697E-09
 -9.4900001E-04    1.4218365E-07
 -9.4850000E-04    2.7067568E-07
 -9.4800000E-04    3.8861216E-07
 -9.4750000E-04    4.9265975E-07
 -9.4699999E-04    5.7420732E-07
 -9.4649999E-04    6.3061606E-07
 -9.4599999E-04    6.5591365E-07
 -9.4549998E-04    6.4815572E-07
 -9.4499998E-04    6.0907831E-07
 -9.4449997E-04    5.4156237E-07
 -9.4400003E-04    4.4901168E-07
 -9.4350002E-04    3.3979433E-07
 -9.4300002E-04    2.1960474E-07
 -9.4250002E-04    9.5665172E-08
 -9.4200001E-04   -2.6885516E-08
 -9.4150001E-04   -1.3971398E-07
 -9.4100001E-04   -2.4004243E-07
 -9.4050000E-04   -3.2925976E-07
 -9.4000000E-04   -4.0319935E-07
 -9.3949999E-04   -4.6227782E-07
 -9.3899999E-04   -5.0635629E-07
 -9.3849999E-04   -5.3793474E-07
 -9.3799998E-04   -5.5492990E-07
 -9.3749998E-04   -5.6220279E-07
 -9.3699998E-04   -5.6114237E-07
 -9.3649997E-04   -5.5167919E-07
 -9.3600003E-04   -5.3624376E-07
 -9.3550002E-04   -5.1761390E-07
 -9.3500002E-04   -4.9884517E-07
 -9.3450001E-04   -4.7507640E-07
 -9.3400001E-04   -4.4922433E-07
 -9.3350001E-04   -4.1101114E-07
 -9.3300000E-04   -3.5793684E-07
 -9.3250000E-04   -2.9180697E-07
 -9.3200000E-04   -2.0623267E-07
 -9.3149999E-04   -1.0364448E-07
 -9.3099999E-04    6.2353678E-09
 -9.3049998E-04    1.2139300E-07
 -9.2999998E-04    2.3418953E-07
 -9.2949998E-04    3.3386107E-07
 -9.2899997E-04    4.1573745E-07
 -9.2850003E-04    4.7547843E-07
 -9.2800002E-04    5.0912564E-07
 -9.2750002E-04    5.0957840E-07
 -9.2700002E-04    4.7749643E-07
 -9.2650001E-04    4.1881725E-07
 -9.2600001E-04    3.4479086E-07
 -9.2550000E-04    2.6333390E-07
 -9.2500000E-04    1.8451584E-07
 -9.2450000E-04    1.1958667E-07
 -9.2399999E-04    7.4379727E-08
 -9.2349999E-04    5.6811675E-08
 -9.2299999E-04    6.7299176E-08
 -9.2249998E-04    1.0834223E-07
 -9.2199998E-04    1.7632973E-07
 -9.2149997E-04    2.6862278E-07
 -9.2100003E-04    3.7154084E-07
 -9.2050002E-04    4.6991028E-07
 -9.2000002E-04    5.4863563E-07
 -9.1950002E-04    5.9364572E-07
 -9.1900001E-04    6.0053083E-07
 -9.1850001E-04    5.5547144E-07
 -9.1800001E-04    4.5388430E-07
 -9.1750000E-04    3.0035272E-07
 -9.1700000E-04    9.8487803E-08
 -9.1649999E-04   -1.3934935E-07
 -9.1599999E-04   -3.9954762E-07
 -9.1549999E-04   -6.6405141E-07
 -9.1499998E-04   -9.1258300E-07
 -9.1449998E-04   -1.1266008E-06
 -9.1399997E-04   -1.2924935E-06
 -9.1349997E-04   -1.3923099E-06
 -9.1300003E-04   -1.4153727E-06
 -9.1250002E-04   -1.3520466E-06
 -9.1200002E-04   -1.1993977E-06
 -9.1150001E-04   -9.5997791E-07
 -9.1100001E-04   -6.4458590E-07
 -9.1050001E-04   -2.7037444E-07
 -9.1000000E-04    1.4439254E-07
 -9.0950000E-04    5.7339560E-07
 -9.0899999E-04    9.9128749E-07
 -9.0849999E-04    1.3691099E-06
 -9.0799999E-04    1.6801268E-06
 -9.0749998E-04    1.9020465E-06
 -9.0699998E-04    2.0213968E-06
 -9.0649998E-04    2.0353305E-06
 -9.0599997E-04    1.9417641E-06
 -9.0550003E-04    1.7454894E-06
 -9.0500002E-04    1.4628258E-06
 -9.0450002E-04    1.1099539E-06
 -9.0400001E-04    7.0784586E-07
 -9.0350001E-04    2.8004339E-07
 -9.0300001E-04   -1.4741187E-07
 -9.0250000E-04   -5.4997133E-07
 -9.0200000E-04   -9.0760022E-07
 -9.0150000E-04   -1.2021735E-06
 -9.0099999E-04   -1.4131704E-06
 -9.0049999E-04   -1.5341553E-06
 -8.9999998E-04   -1.5590118E-06
 -8.9949998E-04   -1.4838683E-06
 -8.9899998E-04   -1.3247666E-06
 -8.9849997E-04   -1.0975398E-06
 -8.9800003E-04   -8.1475741E-07
 -8.9750002E-04   -4.9058610E-07
 -8.9700002E-04   -1.4599814E-07
 -8.9650002E-04    2.0081205E-07
 -8.9600001E-04    5.2970557E-07
 -8.9550001E-04    8.1901578E-07
 -8.9500000E-04    1.0622149E-06
 -8.9450000E-04    1.2439557E-06
 -8.9400000E-04    1.3570159E-06
 -8.9349999E-04    1.3997288E-06
 -8.9299999E-04    1.3746987E-06
 -8.9249999E-04    1.2859578E-06
 -8.9199998E-04    1.1370779E-06
 -8.9149998E-04    9.3542025E-07
 -8.9099997E-04    6.9542926E-07
 -8.9050003E-04    4.3071606E-07
 -8.9000002E-04    1.4947508E-07
 -8.8950002E-04   -1.3440479E-07
 -8.8900002E-04   -4.0814575E-07
 -8.8850001E-04   -6.6091457E-07
 -8.8800001E-04   -8.7729444E-07
 -8.8750001E-04   -1.0436743E-06
 -8.8700000E-04   -1.1538041E-06
 -8.8650000E-04   -1.1999061E-06
 -8.8599999E-04   -1.1732304E-06
 -8.8549999E-04   -1.0776658E-06
 -8.8499999E-04   -9.2001795E-07
 -8.8449998E-04   -7.1344641E-07
 -8.8399998E-04   -4.6667526E-07
 -8.8349998E-04   -2.0205687E-07
 -8.8299997E-04    6.5755955E-08
 -8.8250003E-04    3.0884658E-07
 -8.8200002E-04    5.1179831E-07
 -8.8150002E-04    6.5669451E-07
 -8.8100001E-04    7.3075739E-07
 -8.8050001E-04    7.3620913E-07
 -8.8000001E-04    6.6999422E-07
 -8.7950000E-04    5.4100155E-07
 -8.7900000E-04    3.5589775E-07
 -8.7850000E-04    1.3412728E-07
 -8.7799999E-04   -1.0792095E-07
 -8.7749999E-04   -3.4566364E-07
 -8.7699998E-04   -5.6493411E-07
 -8.7649998E-04   -7.4857957E-07
 -8.7599998E-04   -8.8847503E-07
 -8.7549997E-04   -9.7753718E-07
 -8.7500003E-04   -1.0168771E-06
 -8.7450002E-04   -1.0114949E-06
 -8.7400002E-04   -9.6444592E-07
 -8.7350002E-04   -8.9461918E-07
 -8.7300001E-04   -8.1784799E-07
 -8.7250001E-04   -7.5135455E-07
 -8.7200000E-04   -7.1097224E-07
 -8.7150000E-04   -7.0336773E-07
 -8.7100000E-04   -7.2742989E-07
 -8.7049999E-04   -7.8093649E-07
 -8.6999999E-04   -8.5541529E-07
 -8.6949999E-04   -9.3753300E-07
 -8.6899998E-04   -1.0134007E-06
 -8.6849998E-04   -1.0656573E-06
 -8.6799997E-04   -1.0754139E-06
 -8.6750003E-04   -1.0254482E-06
 -8.6700002E-04   -9.0326034E-07
 -8.6650002E-04   -6.9718362E-07
 -8.6600002E-04   -4.0082912E-07
 -8.6550001E-04   -1.8502391E-08
 -8.6500001E-04    4.3812986E-07
 -8.6450001E-04    9.5240102E-07
 -8.6400000E-04    1.4986861E-06
 -8.6350000E-04    2.0515336E-06
 -8.6299999E-04    2.5825930E-06
 -8.6249999E-04    3.0575065E-06
 -8.6199999E-04    3.4464479E-06
 -8.6149998E-04    3.7212224E-06
 -8.6099998E-04    3.8546082E-06
 -8.6049997E-04    3.8305634E-06
 -8.5999997E-04    3.6421436E-06
 -8.5950003E-04    3.2834459E-06
 -8.5900002E-04    2.7666233E-06
 -8.5850002E-04    2.1136896E-06
 -8.5800001E-04    1.3458946E-06
 -8.5750001E-04    5.0164135E-07
 -8.5700001E-04   -3.7716052E-07
 -8.5650000E-04   -1.2468652E-06
 -8.5600000E-04   -2.0653893E-06
 -8.5549999E-04   -2.7979411E-06
 -8.5499999E-04   -3.4124373E-06
 -8.5449999E-04   -3.8871422E-06
 -8.5399998E-04   -4.2138608E-06
 -8.5349998E-04   -4.3914129E-06
 -8.5299998E-04   -4.4166036E-06
 -8.5249997E-04   -4.2968813E-06
 -8.5200003E-04   -4.0555142E-06
 -8.5150002E-04   -3.7110740E-06
 -8.5100002E-04   -3.2877795E-06
 -8.5050002E-04   -2.8058739E-06
 -8.5000001E-04   -2.2920935E-06
 -8.4950001E-04   -1.7706741E-06
 -8.4900000E-04   -1.2548102E-06
 -8.4850000E-04   -7.7019621E-07
 -8.4800000E-04   -3.2488782E-07
 -8.4749999E-04    7.4865028E-08
 -8.4699999E-04    4.2614568E-07
 -8.4649998E-04    7.2659299E-07
 -8.4599998E-04    9.7679720E-07
 -8.4549998E-04    1.1656125E-06
 -8.4499997E-04    1.2964764E-06
 -8.4450003E-04    1.3559514E-06
 -8.4400002E-04    1.3410515E-06
 -8.4350002E-04    1.2578182E-06
 -8.4300002E-04    1.0998627E-06
 -8.4250001E-04    8.8565724E-07
 -8.4200001E-04    6.1631283E-07
 -8.4150000E-04    3.0849623E-07
 -8.4100000E-04   -9.8759472E-09
 -8.4050000E-04   -3.0255370E-07
 -8.3999999E-04   -5.4186341E-07
 -8.3949999E-04   -6.8669397E-07
 -8.3899999E-04   -6.9409396E-07
 -8.3849998E-04   -5.3448002E-07
 -8.3799998E-04   -1.8243560E-07
 -8.3749997E-04    3.7196997E-07
 -8.3700003E-04    1.1245006E-06
 -8.3650002E-04    2.0476562E-06
 -8.3600002E-04    3.0987285E-06
 -8.3550002E-04    4.2073702E-06
 -8.3500001E-04    5.2944147E-06
 -8.3450001E-04    6.2676049E-06
 -8.3400001E-04    7.0322885E-06
 -8.3350000E-04    7.4995414E-06
 -8.3300000E-04    7.5849716E-06
 -8.3249999E-04    7.2357361E-06
 -8.3199999E-04    6.4232927E-06
 -8.3149999E-04    5.1565958E-06
 -8.3099998E-04    3.4855414E-06
 -8.3049998E-04    1.5003550E-06
 -8.2999998E-04   -6.9681050E-07
 -8.2949997E-04   -2.9709897E-06
 -8.2900003E-04   -5.1673223E-06
 -8.2850002E-04   -7.1316063E-06
 -8.2800002E-04   -8.7363414E-06
 -8.2750001E-04   -9.8579430E-06
 -8.2700001E-04   -1.0405794E-05
 -8.2650001E-04   -1.0335625E-05
 -8.2600000E-04   -9.6506647E-06
 -8.2550000E-04   -8.3938294E-06
 -8.2500000E-04   -6.6603270E-06
 -8.2449999E-04   -4.5847414E-06
 -8.2399999E-04   -2.3184616E-06
 -8.2349998E-04   -1.3987346E-08
 -8.2299998E-04    2.1588205E-06
 -8.2249998E-04    4.0512814E-06
 -8.2199997E-04    5.5362766E-06
 -8.2150003E-04    6.5130516E-06
 -8.2100002E-04    6.9225698E-06
 -8.2050002E-04    6.7483379E-06
 -8.2000002E-04    6.0343141E-06
 -8.1950001E-04    4.8587626E-06
 -8.1900001E-04    3.3646002E-06
 -8.1850000E-04    1.6927987E-06
 -8.1800000E-04   -1.1225097E-08
 -8.1750000E-04   -1.5814990E-06
 -8.1699999E-04   -2.8821200E-06
 -8.1649999E-04   -3.8086787E-06
 -8.1599999E-04   -4.3037267E-06
 -8.1549998E-04   -4.3338441E-06
 -8.1499998E-04   -3.9247257E-06
 -8.1449997E-04   -3.1283848E-06
 -8.1400003E-04   -2.0164885E-06
 -8.1350002E-04   -7.0653664E-07
 -8.1300002E-04    6.8688757E-07
 -8.1250002E-04    2.0495479E-06
 -8.1200001E-04    3.2631804E-06
 -8.1150001E-04    4.2415695E-06
 -8.1100001E-04    4.9444293E-06
 -8.1050000E-04    5.3364906E-06
 -8.1000000E-04    5.4138991E-06
 -8.0949999E-04    5.2065852E-06
 -8.0899999E-04    4.7593412E-06
 -8.0849999E-04    4.1447356E-06
 -8.0799998E-04    3.4599914E-06
 -8.0749998E-04    2.7787194E-06
 -8.0699997E-04    2.1407111E-06
 -8.0649997E-04    1.6131544E-06
 -8.0600003E-04    1.2203501E-06
 -8.0550002E-04    9.7754582E-07
 -8.0500002E-04    8.6244989E-07
 -8.0450001E-04    8.1693730E-07
 -8.0400001E-04    7.7795249E-07
 -8.0350001E-04    6.6563433E-07
 -8.0300000E-04    4.1637173E-07
 -8.0250000E-04   -4.9488051E-08
 -8.0200000E-04   -7.8020895E-07
 -8.0149999E-04   -1.7923883E-06
 -8.0099999E-04   -3.0692549E-06
 -8.0049998E-04   -4.5696288E-06
 -7.9999998E-04   -6.1947248E-06
 -7.9949998E-04   -7.8353769E-06
 -7.9899997E-04   -9.3613062E-06
 -7.9850003E-04   -1.0611680E-05
 -7.9800002E-04   -1.1459415E-05
 -7.9750002E-04   -1.1772705E-05
 -7.9700002E-04   -1.1478010E-05
 -7.9650001E-04   -1.0522481E-05
 -7.9600001E-04   -8.9116047E-06
 -7.9550000E-04   -6.6877597E-06
 -7.9500000E-04   -3.9404899E-06
 -7.9450000E-04   -8.3078976E-07
 -7.9399999E-04    2.4589451E-06
 -7.9349999E-04    5.7337147E-06
 -7.9299998E-04    8.7836925E-06
 -7.9249998E-04    1.1430962E-05
 -7.9199998E-04    1.3532573E-05
 -7.9149997E-04    1.4938523E-05
 -7.9100003E-04    1.5586227E-05
 -7.9050002E-04    1.5454643E-05
 -7.9000002E-04    1.4559961E-05
 -7.8950002E-04    1.2994999E-05
 -7.8900001E-04    1.0861462E-05
 -7.8850001E-04    8.3219702E-06
 -7.8800000E-04    5.5689015E-06
 -7.8750000E-04    2.7418400E-06
 -7.8700000E-04    2.5681175E-08
 -7.8649999E-04   -2.4071442E-06
 -7.8599999E-04   -4.4444141E-06
 -7.8549999E-04   -5.9862678E-06
 -7.8499998E-04   -6.9840935E-06
 -7.8449998E-04   -7.4608079E-06
 -7.8399997E-04   -7.4646059E-06
 -7.8350003E-04   -7.0665287E-06
 -7.8300002E-04   -6.3912639E-06
 -7.8250002E-04   -5.5424230E-06
 -7.8200002E-04   -4.6522628E-06
 -7.8150001E-04   -3.8339081E-06
 -7.8100001E-04   -3.1813865E-06
 -7.8050001E-04   -2.7717817E-06
 -7.8000000E-04   -2.6221769E-06
 -7.7950000E-04   -2.7646554E-06
 -7.7899999E-04   -3.1704672E-06
 -7.7849999E-04   -3.7855846E-06
 -7.7799999E-04   -4.5315355E-06
 -7.7749998E-04   -5.3172780E-06
 -7.7699998E-04   -6.0591665E-06
 -7.7649998E-04   -6.6511993E-06
 -7.7599997E-04   -7.0036140E-06
 -7.7550003E-04   -7.0650563E-06
 -7.7500002E-04   -6.8031654E-06
 -7.7450002E-04   -6.1997466E-06
 -7.7400001E-04   -5.2650776E-06
 -7.7350001E-04   -4.0261034E-06
 -7.7300001E-04   -2.5046290E-06
 -7.7250000E-04   -7.6919639E-07
 -7.7200000E-04    1.0920695E-06
 -7.7150000E-04    2.9923631E-06
 -7.7099999E-04    4.8198440E-06
 -7.7049999E-04    6.5144823E-06
 -7.6999998E-04    7.9981401E-06
 -7.6949998E-04    9.2165974E-06
 -7.6899998E-04    1.0124430E-05
 -7.6849997E-04    1.0721508E-05
 -7.6800003E-04    1.1043343E-05
 -7.6750002E-04    1.1105247E-05
 -7.6700002E-04    1.0910276E-05
 -7.6650002E-04    1.0488429E-05
 -7.6600001E-04    9.8567225E-06
 -7.6550001E-04    9.0573067E-06
 -7.6500000E-04    8.1295575E-06
 -7.6450000E-04    7.0851074E-06
 -7.6400000E-04    5.9688864E-06
 -7.6349999E-04    4.8260681E-06
 -7.6299999E-04    3.6473471E-06
 -7.6249999E-04    2.4307092E-06
 -7.6199998E-04    1.1869879E-06
 -7.6149998E-04   -8.5761144E-08
 -7.6099997E-04   -1.4046212E-06
 -7.6050003E-04   -2.7965368E-06
 -7.6000002E-04   -4.2323413E-06
 -7.5950002E-04   -5.7641178E-06
 -7.5900002E-04   -7.4079780E-06
 -7.5850001E-04   -9.0998938E-06
 -7.5800001E-04   -1.0850559E-05
 -7.5750001E-04   -1.2560218E-05
 -7.5700000E-04   -1.4158974E-05
 -7.5650000E-04   -1.5549953E-05
 -7.5599999E-04   -1.6601904E-05
 -7.5549999E-04   -1.7210243E-05
 -7.5499999E-04   -1.7262748E-05
 -7.5449998E-04   -1.6690392E-05
 -7.5399998E-04   -1.5404148E-05
 -7.5349997E-04   -1.3418459E-05
 -7.5299997E-04   -1.0769993E-05
 -7.5250003E-04   -7.5431926E-06
 -7.5200002E-04   -3.8376375E-06
 -7.5150002E-04    2.1885535E-07
 -7.5100001E-04    4.4337507E-06
 -7.5050001E-04    8.5982292E-06
 -7.5000001E-04    1.2485208E-05
 -7.4950000E-04    1.5896909E-05
 -7.4900000E-04    1.8633957E-05
 -7.4850000E-04    2.0516838E-05
 -7.4799999E-04    2.1482740E-05
 -7.4749999E-04    2.1434336E-05
 -7.4699998E-04    2.0371002E-05
 -7.4649998E-04    1.8360584E-05
 -7.4599998E-04    1.5569334E-05