 -1.2000001E-03    1.0000000E-24
 -1.1995001E-03    1.0000000E-24
 -1.1990000E-03    1.0000000E-24
 -1.1985000E-03    1.0000000E-24
 -1.1980000E-03    1.0000000E-24
 -1.1975000E-03    1.0000000E-24
 -1.1970000E-03    1.0000000E-24
 -1.1965000E-03    1.0000000E-24
 -1.1960000E-03    1.0000001E-24
 -1.1955000E-03    1.0000001E-24
 -1.1950000E-03    1.0000001E-24
 -1.1945000E-03    1.0000001E-24
 -1.1940000E-03    1.0000001E-24
 -1.1935000E-03    1.0000001E-24
 -1.1930000E-03    1.0000001E-24
 -1.1925000E-03    1.0000001E-24
 -1.1920000E-03    1.0000001E-24
 -1.1915000E-03    1.0000001E-24
 -1.1910000E-03    1.0000001E-24
 -1.1905000E-03    1.0000001E-24
 -1.1900000E-03    1.0000001E-24
 -1.1895000E-03    1.0000001E-24
 -1.1890000E-03    1.0000001E-24
 -1.1885000E-03    1.0000001E-24
 -1.1880000E-03    1.0000001E-24
 -1.1875000E-03    1.0000001E-24
 -1.1870000E-03    1.0000001E-24
 -1.1865000E-03    1.0000001E-24
 -1.1860000E-03    1.0000001E-24
 -1.1854999E-03    1.0000001E-24
 -1.1849999E-03    1.0000001E-24
 -1.1845001E-03    1.0000001E-24
 -1.1840001E-03    1.0000001E-24
 -1.1835000E-03    1.0000000E-24
 -1.1830000E-03    9.9999963E-25
 -1.1825000E-03    9.9999874E-25
 -1.1820000E-03    9.9999686E-25
 -1.1815000E-03    9.9999292E-25
 -1.1810000E-03    9.9998483E-25
 -1.1805000E-03    9.9996916E-25
 -1.1800000E-03    9.9993987E-25
 -1.1795000E-03    9.9988741E-25
 -1.1790000E-03    9.9979797E-25
 -1.1785000E-03    9.9965332E-25
 -1.1780000E-03    9.9943441E-25
 -1.1775000E-03    9.9913069E-25
 -1.1770000E-03    9.9876358E-25
 -1.1765000E-03    9.9843324E-25
 -1.1760000E-03    9.9840514E-25
 -1.1755000E-03    9.9925948E-25
 -1.1750000E-03    1.0021318E-24
 -1.1745000E-03    1.0090775E-24
 -1.1740000E-03    1.0235881E-24
 -1.1735000E-03    1.0512657E-24
 -1.1730000E-03    1.1006159E-24
 -1.1725000E-03    1.1838233E-24
 -1.1720000E-03    1.3172206E-24
 -1.1715000E-03    1.5209173E-24
 -1.1710000E-03    1.8167183E-24
 -1.1704999E-03    2.2230150E-24
 -1.1699999E-03    2.7448175E-24
 -1.1695001E-03    3.3565755E-24
 -1.1690001E-03    3.9750681E-24
 -1.1685000E-03    4.4196528E-24
 -1.1680000E-03    4.3579520E-24
 -1.1675000E-03    3.2370787E-24
 -1.1670000E-03    2.0440944E-25
 -1.1665000E-03   -5.9716195E-24
 -1.1660000E-03   -1.6960587E-23
 -1.1655000E-03   -3.4875692E-23
 -1.1650000E-03   -6.2175953E-23
 -1.1645000E-03   -1.0139604E-22
 -1.1640000E-03   -1.5461598E-22
 -1.1635000E-03   -2.2256866E-22
 -1.1630000E-03   -3.0327983E-22
 -1.1625000E-03   -3.9015314E-22
 -1.1620000E-03   -4.6946221E-22
 -1.1615000E-03   -5.1730888E-22
 -1.1610000E-03   -4.9626232E-22
 -1.1605000E-03   -3.5212216E-22
 -1.1600000E-03   -1.1554301E-23
 -1.1595000E-03    6.1827914E-22
 -1.1590000E-03    1.6465530E-21
 -1.1585000E-03    3.1901214E-21
 -1.1580000E-03    5.3570890E-21
 -1.1575000E-03    8.2202188E-21
 -1.1570000E-03    1.1778028E-20
 -1.1565000E-03    1.5902227E-20
 -1.1560000E-03    2.0271738E-20
 -1.1555000E-03    2.4295997E-20
 -1.1549999E-03    2.7033933E-20
 -1.1544999E-03    2.7119685E-20
 -1.1540001E-03    2.2711935E-20
 -1.1535001E-03    1.1490056E-20
 -1.1530000E-03   -9.2734588E-21
 -1.1525000E-03   -4.2529724E-20
 -1.1520000E-03   -9.1122410E-20
 -1.1515000E-03   -1.5727423E-19
 -1.1510000E-03   -2.4186508E-19
 -1.1505000E-03   -3.4349435E-19
 -1.1500000E-03   -4.5734832E-19
 -1.1495000E-03   -5.7393570E-19
 -1.1490000E-03   -6.7780823E-19
 -1.1485000E-03   -7.4644784E-19
 -1.1480000E-03   -7.4957401E-19
 -1.1475000E-03   -6.4919533E-19
 -1.1470000E-03   -4.0078912E-19
 -1.1465000E-03    4.3973800E-20
 -1.1460000E-03    7.3255146E-19
 -1.1455000E-03    1.7045656E-18
 -1.1450000E-03    2.9823691E-18
 -1.1445000E-03    4.5592181E-18
 -1.1440000E-03    6.3854902E-18
 -1.1435000E-03    8.3538567E-18
 -1.1430000E-03    1.0284887E-17
 -1.1425000E-03    1.1915198E-17
 -1.1420000E-03    1.2890867E-17
 -1.1415000E-03    1.2769405E-17
 -1.1410000E-03    1.1033900E-17
 -1.1405000E-03    7.1229945E-18
 -1.1399999E-03    4.7993060E-19
 -1.1394999E-03   -9.3771643E-18
 -1.1390001E-03   -2.2763283E-17
 -1.1385001E-03   -3.9714926E-17
 -1.1380001E-03   -5.9864279E-17
 -1.1375000E-03   -8.2308501E-17
 -1.1370000E-03   -1.0548801E-16
 -1.1365000E-03   -1.2709191E-16
 -1.1360000E-03   -1.4401293E-16
 -1.1355000E-03   -1.5237699E-16
 -1.1350000E-03   -1.4767331E-16
 -1.1345000E-03   -1.2500938E-16
 -1.1340000E-03   -7.9509361E-17
 -1.1335000E-03   -6.8649043E-18
 -1.1330000E-03    9.5966848E-17
 -1.1325000E-03    2.2994260E-16
 -1.1320000E-03    3.9303679E-16
 -1.1315000E-03    5.7934311E-16
 -1.1310000E-03    7.7827298E-16
 -1.1305000E-03    9.7397449E-16
 -1.1300000E-03    1.1451140E-15
 -1.1295000E-03    1.2651715E-15
 -1.1290000E-03    1.3033943E-15
 -1.1285000E-03    1.2265320E-15
 -1.1280000E-03    1.0014301E-15
 -1.1275000E-03    5.9849125E-16
 -1.1270000E-03   -4.0785695E-18
 -1.1265000E-03   -8.1542994E-16
 -1.1260000E-03   -1.8269573E-15
 -1.1255000E-03   -3.0073608E-15
 -1.1250000E-03   -4.2984567E-15
 -1.1244999E-03   -5.6124035E-15
 -1.1239999E-03   -6.8310738E-15
 -1.1235001E-03   -7.8082902E-15
 -1.1230001E-03   -8.3755685E-15
 -1.1225000E-03   -8.3518279E-15
 -1.1220000E-03   -7.5572669E-15
 -1.1215000E-03   -5.8312128E-15
 -1.1210000E-03   -3.0533028E-15
 -1.1205000E-03    8.3317146E-16
 -1.1200000E-03    5.7974831E-15
 -1.1195000E-03    1.1699492E-14
 -1.1190000E-03    1.8272151E-14
 -1.1185000E-03    2.5111462E-14
 -1.1180000E-03    3.1676894E-14
 -1.1175000E-03    3.7305008E-14
 -1.1170000E-03    4.1238504E-14
 -1.1165000E-03    4.2671856E-14
 -1.1160000E-03    4.0813446E-14
 -1.1155000E-03    3.4962386E-14
 -1.1150000E-03    2.4596363E-14
 -1.1145000E-03    9.4647987E-15
 -1.1140000E-03   -1.0320295E-14
 -1.1135000E-03   -3.4205006E-14
 -1.1130000E-03   -6.1136141E-14
 -1.1125000E-03   -8.9536465E-14
 -1.1120000E-03   -1.1732264E-13
 -1.1115000E-03   -1.4197417E-13
 -1.1110000E-03   -1.6065858E-13
 -1.1105000E-03   -1.7041392E-13
 -1.1100000E-03   -1.6838443E-13
 -1.1094999E-03   -1.5209896E-13
 -1.1089999E-03   -1.1977564E-13
 -1.1084999E-03   -7.0630032E-14
 -1.1080001E-03   -5.1586746E-15
 -1.1075001E-03    7.4633577E-14
 -1.1070000E-03    1.6509525E-13
 -1.1065000E-03    2.6091049E-13
 -1.1060000E-03    3.5522795E-13
 -1.1055000E-03    4.3995420E-13
 -1.1050000E-03    5.0621741E-13
 -1.1045000E-03    5.4499168E-13
 -1.1040000E-03    5.4785609E-13
 -1.1035000E-03    5.0784398E-13
 -1.1030000E-03    4.2032128E-13
 -1.1025000E-03    2.8381854E-13
 -1.1020000E-03    1.0073116E-13
 -1.1015000E-03   -1.2220055E-13
 -1.1010000E-03   -3.7371549E-13
 -1.1005000E-03   -6.3823019E-13
 -1.1000000E-03   -8.9645869E-13
 -1.0995000E-03   -1.1264698E-12
 -1.0990000E-03   -1.3051580E-12
 -1.0985000E-03   -1.4100625E-12
 -1.0980000E-03   -1.4214227E-12
 -1.0975000E-03   -1.3243185E-12
 -1.0970000E-03   -1.1107109E-12
 -1.0965000E-03   -7.8117628E-13
 -1.0960000E-03   -3.4612488E-13
 -1.0955000E-03    1.7369065E-13
 -1.0950000E-03    7.4753246E-13
 -1.0945000E-03    1.3359978E-12
 -1.0939999E-03    1.8933214E-12
 -1.0934999E-03    2.3705846E-12
 -1.0930001E-03    2.7196604E-12
 -1.0925001E-03    2.8976199E-12
 -1.0920000E-03    2.8712430E-12
 -1.0915000E-03    2.6212140E-12
 -1.0910000E-03    2.1455476E-12
 -1.0905000E-03    1.4618068E-12
 -1.0900000E-03    6.0772752E-13
 -1.0895000E-03   -3.6002755E-13
 -1.0890000E-03   -1.3691156E-12
 -1.0885000E-03   -2.3367029E-12
 -1.0880000E-03   -3.1763320E-12
 -1.0875000E-03   -3.8059941E-12
 -1.0870000E-03   -4.1567309E-12
 -1.0865000E-03   -4.1809516E-12
 -1.0860000E-03   -3.8595507E-12
 -1.0855000E-03   -3.2069122E-12
 -1.0850000E-03   -2.2729778E-12
 -1.0845000E-03   -1.1417441E-12
 -1.0840000E-03    7.4148695E-14
 -1.0835000E-03    1.2427093E-12
 -1.0830000E-03    2.2253106E-12
 -1.0825000E-03    2.8919341E-12
 -1.0820000E-03    3.1376254E-12
 -1.0815000E-03    2.8985195E-12
 -1.0810000E-03    2.1655694E-12
 -1.0805000E-03    9.9408069E-13
 -1.0800000E-03   -4.9269280E-13
 -1.0795000E-03   -2.1072642E-12
 -1.0790000E-03   -3.6097308E-12
 -1.0784999E-03   -4.7277208E-12
 -1.0779999E-03   -5.1836131E-12
 -1.0775001E-03   -4.7272416E-12
 -1.0770001E-03   -3.1713911E-12
 -1.0765000E-03   -4.2665047E-13
 -1.0760000E-03    3.4683133E-12
 -1.0755000E-03    8.3251557E-12
 -1.0750000E-03    1.3796781E-11
 -1.0745000E-03    1.9383941E-11
 -1.0740000E-03    2.4459487E-11
 -1.0735000E-03    2.8310772E-11
 -1.0730000E-03    3.0198809E-11
 -1.0725000E-03    2.9430854E-11
 -1.0720000E-03    2.5441194E-11
 -1.0715000E-03    1.7873147E-11
 -1.0710000E-03    6.6542041E-12
 -1.0705000E-03   -7.9444220E-12
 -1.0700000E-03   -2.5272208E-11
 -1.0695000E-03   -4.4294991E-11
 -1.0690000E-03   -6.3627027E-11
 -1.0685000E-03   -8.1601753E-11
 -1.0680000E-03   -9.6379987E-11
 -1.0675000E-03   -1.0609045E-10
 -1.0670000E-03   -1.0899358E-10
 -1.0665000E-03   -1.0365628E-10
 -1.0660000E-03   -8.9122300E-11
 -1.0655000E-03   -6.5061817E-11
 -1.0650000E-03   -3.1883683E-11
 -1.0645000E-03    9.2045468E-12
 -1.0640000E-03    5.6200104E-11
 -1.0634999E-03    1.0637848E-10
 -1.0629999E-03    1.5643697E-10
 -1.0625001E-03    2.0270197E-10
 -1.0620001E-03    2.4138608E-10
 -1.0615001E-03    2.6887592E-10
 -1.0610000E-03    2.8202587E-10
 -1.0605000E-03    2.7843119E-10
 -1.0600000E-03    2.5665378E-10
 -1.0595000E-03    2.1637686E-10
 -1.0590000E-03    1.5847118E-10
 -1.0585000E-03    8.4963370E-11
 -1.0580000E-03   -1.0920709E-12
 -1.0575000E-03   -9.5824917E-11
 -1.0570000E-03   -1.9482270E-10
 -1.0565000E-03   -2.9343372E-10
 -1.0560000E-03   -3.8706283E-10
 -1.0555000E-03   -4.7142151E-10
 -1.0550000E-03   -5.4269877E-10
 -1.0545000E-03   -5.9762767E-10
 -1.0540000E-03   -6.3343786E-10
 -1.0535000E-03   -6.4770145E-10
 -1.0530000E-03   -6.3810096E-10
 -1.0525000E-03   -6.0216615E-10
 -1.0520000E-03   -5.3704474E-10
 -1.0515000E-03   -4.3938075E-10
 -1.0510000E-03   -3.0537597E-10
 -1.0505000E-03   -1.3110089E-10
 -1.0500000E-03    8.6900973E-11
 -1.0495000E-03    3.5070480E-10
 -1.0490000E-03    6.5982542E-10
 -1.0485000E-03    1.0098518E-09
 -1.0479999E-03    1.3910311E-09
 -1.0474999E-03    1.7869887E-09
 -1.0470001E-03    2.1738045E-09
 -1.0465001E-03    2.5196889E-09
 -1.0460000E-03    2.7854912E-09
 -1.0455000E-03    2.9262390E-09
 -1.0450000E-03    2.8938412E-09
 -1.0445000E-03    2.6409790E-09
 -1.0440000E-03    2.1260880E-09
 -1.0435000E-03    1.3191819E-09
 -1.0430000E-03    2.0811197E-10
 -1.0425000E-03   -1.1952870E-09
 -1.0420000E-03   -2.8498424E-09
 -1.0415000E-03   -4.6812287E-09
 -1.0410000E-03   -6.5804628E-09
 -1.0405000E-03   -8.4054097E-09
 -1.0400000E-03   -9.9858593E-09
 -1.0395000E-03   -1.1132493E-08
 -1.0390000E-03   -1.1649743E-08
 -1.0385000E-03   -1.1352155E-08
 -1.0380000E-03   -1.0083446E-08
 -1.0375000E-03   -7.7370164E-09
 -1.0370000E-03   -4.2762709E-09
 -1.0365000E-03    2.4719737E-10
 -1.0360000E-03    5.6797065E-09
 -1.0355000E-03    1.1758013E-08
 -1.0350000E-03    1.8110240E-08
 -1.0345000E-03    2.4266754E-08
 -1.0340000E-03    2.9681910E-08
 -1.0335000E-03    3.3766753E-08
 -1.0329999E-03    3.5931752E-08
 -1.0324999E-03    3.5637576E-08
 -1.0319999E-03    3.2450821E-08
 -1.0315001E-03    2.6100569E-08
 -1.0310001E-03    1.6530928E-08
 -1.0305000E-03    3.9441588E-09
 -1.0300000E-03   -1.1171029E-08
 -1.0295000E-03   -2.8031057E-08
 -1.0290000E-03   -4.5573035E-08
 -1.0285000E-03   -6.2496895E-08
 -1.0280000E-03   -7.7334889E-08
 -1.0275000E-03   -8.8546770E-08
 -1.0270000E-03   -9.4636675E-08
 -1.0265000E-03   -9.4284971E-08
 -1.0260000E-03   -8.6486097E-08
 -1.0255000E-03   -7.0681551E-08
 -1.0250000E-03   -4.6875805E-08
 -1.0245000E-03   -1.5722748E-08
 -1.0240000E-03    2.1429233E-08
 -1.0235000E-03    6.2543457E-08
 -1.0230000E-03    1.0495945E-07
 -1.0225000E-03    1.4551885E-07
 -1.0220000E-03    1.8075083E-07
 -1.0215000E-03    2.0710998E-07
 -1.0210000E-03    2.2125408E-07
 -1.0205000E-03    2.2034402E-07
 -1.0200000E-03    2.0234378E-07
 -1.0195000E-03    1.6629568E-07
 -1.0190000E-03    1.1254433E-07
 -1.0185000E-03    4.2884210E-08
 -1.0180000E-03   -3.9391708E-08
 -1.0174999E-03   -1.2955911E-07
 -1.0169999E-03   -2.2165463E-07
 -1.0165001E-03   -3.0879340E-07
 -1.0160001E-03   -3.8360162E-07
 -1.0155000E-03   -4.3874280E-07
 -1.0150000E-03   -4.6750628E-07
 -1.0145000E-03   -4.6441738E-07
 -1.0140000E-03   -4.2582184E-07
 -1.0135000E-03   -3.5039403E-07
 -1.0130000E-03   -2.3951841E-07
 -1.0125000E-03   -9.7498372E-08
 -1.0120000E-03    6.8444209E-08
 -1.0115000E-03    2.4840267E-07
 -1.0110000E-03    4.3025980E-07
 -1.0105000E-03    6.0039116E-07
 -1.0100000E-03    7.4456597E-07
 -1.0095000E-03    8.4899420E-07
 -1.0090000E-03    9.0145193E-07
 -1.0085000E-03    8.9240194E-07
 -1.0080000E-03    8.1602025E-07
 -1.0075000E-03    6.7103542E-07
 -1.0070000E-03    4.6129531E-07
 -1.0065000E-03    1.9598755E-07
 -1.0060000E-03   -1.1053766E-07
 -1.0055000E-03   -4.3936825E-07
 -1.0050000E-03   -7.6804724E-07
 -1.0045000E-03   -1.0719655E-06
 -1.0040000E-03   -1.3260548E-06
 -1.0035000E-03   -1.5066754E-06
 -1.0030000E-03   -1.5935660E-06
 -1.0025000E-03   -1.5717076E-06
 -1.0019999E-03   -1.4329455E-06
 -1.0014999E-03   -1.1772213E-06
 -1.0010001E-03   -8.1328153E-07
 -1.0005001E-03   -3.5876400E-07
 -1.0000000E-03    1.6039917E-07
 -9.9950004E-04    7.1127039E-07
 -9.9900004E-04    1.2558440E-06
 -9.9850004E-04    1.7535315E-06
 -9.9800003E-04    2.1640424E-06
 -9.9750003E-04    2.4504679E-06
 -9.9700002E-04    2.5823383E-06
 -9.9650002E-04    2.5384138E-06
 -9.9600002E-04    2.3089715E-06
 -9.9550001E-04    1.8973711E-06
 -9.9500001E-04    1.3207259E-06
 -9.9450001E-04    6.0956398E-07
 -9.9400000E-04   -1.9356304E-07
 -9.9350000E-04   -1.0364868E-06
 -9.9299999E-04   -1.8607232E-06
 -9.9249999E-04   -2.6054690E-06
 -9.9199999E-04   -3.2120242E-06
 -9.9149998E-04   -3.6283243E-06
 -9.9099998E-04   -3.8132334E-06
 -9.9049998E-04   -3.7402522E-06
 -9.8999997E-04   -3.4003144E-06
 -9.8949997E-04   -2.8034083E-06
 -9.8899996E-04   -1.9788279E-06
 -9.8849996E-04   -9.7396412E-07
 -9.8799996E-04    1.4834336E-07
 -9.8749995E-04    1.3137620E-06
 -9.8699995E-04    2.4414815E-06
 -9.8649994E-04    3.4499471E-06
 -9.8600006E-04    4.2628972E-06
 -9.8550005E-04    4.8152433E-06
 -9.8500005E-04    5.0583303E-06
 -9.8450005E-04    4.9641380E-06
 -9.8400004E-04    4.5280572E-06
 -9.8350004E-04    3.7699683E-06
 -9.8300003E-04    2.7334856E-06
 -9.8250003E-04    1.4833608E-06
 -9.8200003E-04    1.0120209E-07
 -9.8150002E-04   -1.3202053E-06
 -9.8100002E-04   -2.6835610E-06
 -9.8050002E-04   -3.8941894E-06
 -9.8000001E-04   -4.8670995E-06
 -9.7950001E-04   -5.5333985E-06
 -9.7900000E-04   -5.8455348E-06
 -9.7850000E-04   -5.7809302E-06
 -9.7800000E-04   -5.3436866E-06
 -9.7749999E-04   -4.5642128E-06
 -9.7699999E-04   -3.4967838E-06
 -9.7649998E-04   -2.2152271E-06
 -9.7599998E-04   -8.0708617E-07
 -9.7549998E-04    6.3324137E-07
 -9.7499997E-04    2.0118141E-06
 -9.7450003E-04    3.2422720E-06
 -9.7400002E-04    4.2521651E-06
 -9.7350002E-04    4.9879368E-06
 -9.7300002E-04    5.4181364E-06
 -9.7250001E-04    5.5346013E-06
 -9.7200001E-04    5.3515355E-06
 -9.7150001E-04    4.9026157E-06
 -9.7100000E-04    4.2364481E-06
 -9.7050000E-04    3.4108655E-06
 -9.6999999E-04    2.4866724E-06
 -9.6949999E-04    1.5215122E-06
 -9.6899999E-04    5.6451927E-07
 -9.6849998E-04   -3.4764975E-07
 -9.6799998E-04   -1.1929540E-06
 -9.6749997E-04   -1.9640165E-06
 -9.6700003E-04   -2.6660523E-06
 -9.6650003E-04   -3.3128924E-06
 -9.6600002E-04   -3.9215529E-06
 -9.6550002E-04   -4.5059974E-06
 -9.6500001E-04   -5.0708886E-06
 -9.6450001E-04   -5.6061795E-06
 -9.6400001E-04   -6.0833759E-06
 -9.6350000E-04   -6.4541837E-06
 -9.6300000E-04   -6.6520411E-06
 -9.6249999E-04   -6.5967570E-06
 -9.6199999E-04   -6.2021395E-06
 -9.6149999E-04   -5.3861427E-06
 -9.6099998E-04   -4.0827199E-06
 -9.6049998E-04   -2.2542715E-06
 -9.5999998E-04    9.6626309E-08
 -9.5949997E-04    2.9176301E-06
 -9.5900003E-04    6.1005467E-06
 -9.5850002E-04    9.4799507E-06
 -9.5800002E-04    1.2837378E-05
 -9.5750001E-04    1.5911508E-05
 -9.5700001E-04    1.8414230E-05
 -9.5650001E-04    2.0051883E-05
 -9.5600000E-04    2.0550387E-05
 -9.5550000E-04    1.9682442E-05
 -9.5500000E-04    1.7294549E-05
 -9.5449999E-04    1.3331396E-05
 -9.5399999E-04    7.8550311E-06
 -9.5349998E-04    1.0564791E-06
 -9.5299998E-04   -6.7421706E-06
 -9.5249998E-04   -1.5096525E-05
 -9.5199997E-04   -2.3460037E-05
 -9.5150003E-04   -3.1215117E-05
 -9.5100002E-04   -3.7713817E-05
 -9.5050002E-04   -4.2325690E-05
 -9.5000002E-04   -4.4489636E-05
 -9.4950001E-04   -4.3765798E-05
 -9.4900001E-04   -3.9883289E-05
 -9.4850000E-04   -3.2779357E-05
 -9.4800000E-04   -2.2626018E-05
 -9.4750000E-04   -9.8407490E-06
 -9.4699999E-04    4.9211076E-06
 -9.4649999E-04    2.0793283E-05
 -9.4599999E-04    3.6744466E-05
 -9.4549998E-04    5.1641171E-05
 -9.4499998E-04    6.4324006E-05
 -9.4449997E-04    7.3692558E-05
 -9.4400003E-04    7.8792844E-05
 -9.4350002E-04    7.8900768E-05
 -9.4300002E-04    7.3594718E-05
 -9.4250002E-04    6.2810919E-05
 -9.4200001E-04    4.6875852E-05
 -9.4150001E-04    2.6511671E-05
 -9.4100001E-04    2.8122358E-06
 -9.4050000E-04   -2.2810455E-05
 -9.4000000E-04   -4.8707338E-05
 -9.3949999E-04   -7.3096504E-05
 -9.3899999E-04   -9.4184143E-05
 -9.3849999E-04   -1.1029410E-04
 -9.3799998E-04   -1.1999674E-04
 -9.3749998E-04   -1.2222741E-04
 -9.3699998E-04   -1.1638496E-04
 -9.3649997E-04   -1.0240168E-04
 -9.3600003E-04   -8.0778074E-05
 -9.3550002E-04   -5.2577721E-05
 -9.3500002E-04   -1.9380746E-05
 -9.3450001E-04    1.6802871E-05
 -9.3400001E-04    5.3655556E-05
 -9.3350001E-04    8.8702611E-05
 -9.3300000E-04    1.1948102E-04
 -9.3250000E-04    1.4371490E-04
 -9.3200000E-04    1.5948492E-04
 -9.3149999E-04    1.6537882E-04
 -9.3099999E-04    1.6061139E-04
 -9.3049998E-04    1.4510362E-04
 -9.2999998E-04    1.1951394E-04
 -9.2949998E-04    8.5217383E-05
 -9.2899997E-04    4.4232558E-05
 -9.2850003E-04   -8.9991954E-07
 -9.2800002E-04   -4.7280188E-05
 -9.2750002E-04   -9.1842274E-05
 -9.2700002E-04   -1.3156433E-04
 -9.2650001E-04   -1.6368111E-04
 -9.2600001E-04   -1.8588305E-04
 -9.2550000E-04   -1.9648737E-04
 -9.2500000E-04   -1.9456766E-04
 -9.2450000E-04   -1.8003221E-04
 -9.2399999E-04   -1.5364397E-04
 -9.2349999E-04   -1.1698000E-04
 -9.2299999E-04   -7.2332361E-05
 -9.2249998E-04   -2.2556891E-05
 -9.2199998E-04    2.9119550E-05
 -9.2149997E-04    7.9319885E-05
 -9.2100003E-04    1.2474964E-04
 -9.2050002E-04    1.6242490E-04
 -9.2000002E-04    1.8987861E-04
 -9.1950002E-04    2.0533033E-04
 -9.1900001E-04    2.0780669E-04
 -9.1850001E-04    1.9720405E-04
 -9.1800001E-04    1.7428881E-04
 -9.1750000E-04    1.4063597E-04
 -9.1700000E-04    9.8510594E-05
 -9.1649999E-04    5.0702038E-05
 -9.1599999E-04    3.2334356E-07
 -9.1549999E-04   -4.9408471E-05
 -9.1499998E-04   -9.5394615E-05
 -9.1449998E-04   -1.3486261E-04
 -9.1399997E-04   -1.6554484E-04
 -9.1349997E-04   -1.8581509E-04
 -9.1300003E-04   -1.9477372E-04
 -9.1250002E-04   -1.9227687E-04
 -9.1200002E-04   -1.7890937E-04
 -9.1150001E-04   -1.5590571E-04
 -9.1100001E-04   -1.2502761E-04
 -9.1050001E-04   -8.8409739E-05
 -9.1000000E-04   -4.8387952E-05
 -9.0950000E-04   -7.3247247E-06
 -9.0899999E-04    3.2553384E-05
 -9.0849999E-04    6.9293223E-05
 -9.0799999E-04    1.0131734E-04
 -9.0749998E-04    1.2748447E-04
 -9.0699998E-04    1.4710583E-04
 -9.0649998E-04    1.5991936E-04
 -9.0599997E-04    1.6602785E-04
 -9.0550003E-04    1.6581059E-04
 -9.0500002E-04    1.5982063E-04
 -9.0450002E-04    1.4868079E-04
 -9.0400001E-04    1.3299155E-04
 -9.0350001E-04    1.1326247E-04
 -9.0300001E-04    8.9875779E-05
 -9.0250000E-04    6.3087369E-05
 -9.0200000E-04    3.3065495E-05
 -9.0150000E-04   -3.6816346E-08
 -9.0099999E-04   -3.5984285E-05
 -9.0049999E-04   -7.4349176E-05
 -8.9999998E-04   -1.1440343E-04
 -8.9949998E-04   -1.5502924E-04
 -8.9899998E-04   -1.9466385E-04
 -8.9849997E-04   -2.3129222E-04
 -8.9800003E-04   -2.6249708E-04
 -8.9750002E-04   -2.8557115E-04
 -8.9700002E-04   -2.9768984E-04
 -8.9650002E-04   -2.9613625E-04
 -8.9600001E-04   -2.7856394E-04
 -8.9550001E-04   -2.4327723E-04
 -8.9500000E-04   -1.8950430E-04
 -8.9450000E-04   -1.1763620E-04
 -8.9400000E-04   -2.9404677E-05
 -8.9349999E-04    7.2026087E-05
 -8.9299999E-04    1.8207385E-04
 -8.9249999E-04    2.9487174E-04
 -8.9199998E-04    4.0352467E-04
 -8.9149998E-04    5.0048291E-04
 -8.9099997E-04    5.7801604E-04
 -8.9050003E-04    6.2876049E-04
 -8.9000002E-04    6.4630475E-04
 -8.8950002E-04    6.2577019E-04
 -8.8900002E-04    5.6434097E-04
 -8.8850001E-04    4.6169641E-04
 -8.8800001E-04    3.2030261E-04
 -8.8750001E-04    1.4552675E-04
 -8.8700000E-04   -5.4451404E-05
 -8.8650000E-04   -2.6894305E-04
 -8.8599999E-04   -4.8526586E-04
 -8.8549999E-04   -6.8945129E-04
 -8.8499999E-04   -8.6710829E-04
 -8.8449998E-04   -1.0043920E-03
 -8.8399998E-04   -1.0890155E-03
 -8.8349998E-04   -1.1112328E-03
 -8.8299997E-04   -1.0647203E-03
 -8.8250003E-04   -9.4728434E-04
 -8.8200002E-04   -7.6133001E-04
 -8.8150002E-04   -5.1404082E-04
 -8.8100001E-04   -2.1723477E-04
 -8.8050001E-04    1.1311492E-04
 -8.8000001E-04    4.5768381E-04
 -8.7950000E-04    7.9488900E-04
 -8.7900000E-04    1.1022120E-03
 -8.7850000E-04    1.3576733E-03
 -8.7799999E-04    1.5413630E-03
 -8.7749999E-04    1.6369240E-03
 -8.7699998E-04    1.6328796E-03
 -8.7649998E-04    1.5237042E-03
 -8.7599998E-04    1.3105453E-03
 -8.7549997E-04    1.0015290E-03
 -8.7500003E-04    6.1160256E-04
 -8.7450002E-04    1.6190004E-04
 -8.7400002E-04   -3.2134861E-04
 -8.7350002E-04   -8.0831535E-04
 -8.7300001E-04   -1.2673943E-03
 -8.7250001E-04   -1.6672350E-03
 -8.7200000E-04   -1.9788584E-03
 -8.7150000E-04   -2.1777141E-03
 -8.7100000E-04   -2.2455337E-03
 -8.7049999E-04   -2.1718440E-03
 -8.6999999E-04   -1.9550193E-03
 -8.6949999E-04   -1.6027840E-03
 -8.6899998E-04   -1.1321025E-03
 -8.6849998E-04   -5.6844210E-04
 -8.6799997E-04    5.5567769E-05
 -8.6750003E-04    7.0201309E-04
 -8.6700002E-04    1.3300013E-03
 -8.6650002E-04    1.8982568E-03
 -8.6600002E-04    2.3678378E-03
 -8.6550001E-04    2.7047973E-03
 -8.6500001E-04    2.8826024E-03
 -8.6450001E-04    2.8841423E-03
 -8.6400000E-04    2.7031745E-03
 -8.6350000E-04    2.3450917E-03
 -8.6299999E-04    1.8269387E-03
 -8.6249999E-04    1.1766534E-03
 -8.6199999E-04    4.3156167E-04
 -8.6149998E-04   -3.6379579E-04
 -8.6099998E-04   -1.1603744E-03
 -8.6049997E-04   -1.9077086E-03
 -8.5999997E-04   -2.5571673E-03
 -8.5950003E-04   -3.0651700E-03
 -8.5900002E-04   -3.3961437E-03
 -8.5850002E-04   -3.5250206E-03
 -8.5800001E-04   -3.4390960E-03
 -8.5750001E-04   -3.1391107E-03
 -8.5700001E-04   -2.6394711E-03
 -8.5650000E-04   -1.9675726E-03
 -8.5600000E-04   -1.1622612E-03
 -8.5549999E-04   -2.7151656E-04
 -8.5499999E-04    6.5049931E-04
 -8.5449999E-04    1.5468400E-03
 -8.5399998E-04    2.3614005E-03
 -8.5349998E-04    3.0425328E-03
 -8.5299998E-04    3.5464112E-03
 -8.5249997E-04    3.8399200E-03
 -8.5200003E-04    3.9028723E-03
 -8.5150002E-04    3.7294028E-03
 -8.5100002E-04    3.3284398E-03
 -8.5050002E-04    2.7232217E-03
 -8.5000001E-04    1.9498817E-03
 -8.4950001E-04    1.0551949E-03
 -8.4900000E-04    9.3633833E-05
 -8.4850000E-04   -8.7607512E-04
 -8.4800000E-04   -1.7946663E-03
 -8.4749999E-04   -2.6060755E-03
 -8.4699999E-04   -3.2609629E-03
 -8.4649998E-04   -3.7197864E-03
 -8.4599998E-04   -3.9552283E-03
 -8.4549998E-04   -3.9538210E-03
 -8.4499997E-04   -3.7166749E-03
 -8.4450003E-04   -3.2592686E-03
 -8.4400002E-04   -2.6103300E-03
 -8.4350002E-04   -1.8098929E-03
 -8.4300002E-04   -9.0666959E-04
 -8.4250001E-04    4.5076653E-05
 -8.4200001E-04    9.8894641E-04
 -8.4150000E-04    1.8698794E-03
 -8.4100000E-04    2.6374627E-03
 -8.4050000E-04    3.2488634E-03
 -8.3999999E-04    3.6712093E-03
 -8.3949999E-04    3.8832787E-03
 -8.3899999E-04    3.8764186E-03
 -8.3849998E-04    3.6546593E-03
 -8.3799998E-04    3.2340514E-03
 -8.3749997E-04    2.6413025E-03
 -8.3700003E-04    1.9118326E-03
 -8.3650002E-04    1.0874032E-03
 -8.3600002E-04    2.1349202E-04
 -8.3550002E-04   -6.6340208E-04
 -8.3500001E-04   -1.4983527E-03
 -8.3450001E-04   -2.2503394E-03
 -8.3400001E-04   -2.8841952E-03
 -8.3350000E-04   -3.3720781E-03
 -8.3300000E-04   -3.6944165E-03
 -8.3249999E-04   -3.8403210E-03
 -8.3199999E-04   -3.8074935E-03
 -8.3149999E-04   -3.6016989E-03
 -8.3099998E-04   -3.2358854E-03
 -8.3049998E-04   -2.7290597E-03
 -8.2999998E-04   -2.1050235E-03
 -8.2949997E-04   -1.3910738E-03
 -8.2900003E-04   -6.1675289E-04
 -8.2850002E-04    1.8728670E-04
 -8.2800002E-04    9.9026284E-04
 -8.2750001E-04    1.7620800E-03
 -8.2700001E-04    2.4739946E-03
 -8.2650001E-04    3.0991640E-03
 -8.2600000E-04    3.6131288E-03
 -8.2550000E-04    3.9942819E-03
 -8.2500000E-04    4.2243730E-03
 -8.2449999E-04    4.2890846E-03
 -8.2399999E-04    4.1786968E-03
 -8.2349998E-04    3.8888277E-03
 -8.2299998E-04    3.4212121E-03
 -8.2249998E-04    2.7844473E-03
 -8.2199997E-04    1.9946224E-03
 -8.2150003E-04    1.0757172E-03
 -8.2100002E-04    5.9664366E-05
 -8.2050002E-04   -1.0140296E-03
 -8.2000002E-04   -2.0991920E-03
 -8.1950001E-04   -3.1444663E-03
 -8.1900001E-04   -4.0953816E-03
 -8.1850000E-04   -4.8969625E-03
 -8.1800000E-04   -5.4967813E-03
 -8.1750000E-04   -5.8483002E-03
 -8.1699999E-04   -5.9143021E-03
 -8.1649999E-04   -5.6701698E-03
 -8.1599999E-04   -5.1067583E-03
 -8.1549998E-04   -4.2325933E-03
 -8.1499998E-04   -3.0751561E-03
 -8.1449997E-04   -1.6810542E-03
 -8.1400003E-04   -1.1493510E-04
 -8.1350002E-04    1.5429161E-03
 -8.1300002E-04    3.2002614E-03
 -8.1250002E-04    4.7577498E-03
 -8.1200001E-04    6.1146813E-03
 -8.1150001E-04    7.1753757E-03
 -8.1100001E-04    7.8557581E-03
 -8.1050000E-04    8.0897184E-03
 -8.1000000E-04    7.8347791E-03
 -8.0949999E-04    7.0766257E-03
 -8.0899999E-04    5.8320919E-03
 -8.0849999E-04    4.1502761E-03
 -8.0799998E-04    2.1115739E-03
 -8.0749998E-04   -1.7545721E-04
 -8.0699997E-04   -2.5793368E-03
 -8.0649997E-04   -4.9527818E-03
 -8.0600003E-04   -7.1413480E-03
 -8.0550002E-04   -8.9930901E-03
 -8.0500002E-04   -1.0368646E-02
 -8.0450001E-04   -1.1151081E-02
 -8.0400001E-04   -1.1254799E-02
 -8.0350001E-04   -1.0632867E-02
 -8.0300000E-04   -9.2821596E-03
 -8.0250000E-04   -7.2458582E-03
 -8.0200000E-04   -4.6129944E-03
 -8.0149999E-04   -1.5149235E-03
 -8.0099999E-04    1.8811950E-03
 -8.0049998E-04    5.3816033E-03
 -7.9999998E-04    8.7773446E-03
 -7.9949998E-04    1.1857187E-02
 -7.9899997E-04    1.4421269E-02
 -7.9850003E-04    1.6294569E-02
 -7.9800002E-04    1.7339302E-02
 -7.9750002E-04    1.7465359E-02
 -7.9700002E-04    1.6638001E-02
 -7.9650001E-04    1.4882226E-02
 -7.9600001E-04    1.2283348E-02
 -7.9550000E-04    8.9836540E-03
 -7.9500000E-04    5.1752171E-03
 -7.9450000E-04    1.0892116E-03
 -7.9399999E-04   -3.0176560E-03
 -7.9349999E-04   -6.8787951E-03
 -7.9299998E-04   -1.0234473E-02
 -7.9249998E-04   -1.2848578E-02
 -7.9199998E-04   -1.4524288E-02
 -7.9149997E-04   -1.5117583E-02
 -7.9100003E-04   -1.4547671E-02
 -7.9050002E-04   -1.2803546E-02
 -7.9000002E-04   -9.9461824E-03
 -7.8950002E-04   -6.1061238E-03
 -7.8900001E-04   -1.4765481E-03
 -7.8850001E-04    3.6978293E-03
 -7.8800000E-04    9.1353478E-03
 -7.8750000E-04    1.4534580E-02
 -7.8700000E-04    1.9593013E-02
 -7.8649999E-04    2.4026044E-02
 -7.8599999E-04    2.7585013E-02
 -7.8549999E-04    3.0073129E-02
 -7.8499998E-04    3.1358201E-02
 -7.8449998E-04    3.1381335E-02
 -7.8399997E-04    3.0160997E-02
 -7.8350003E-04    2.7792154E-02
 -7.8300002E-04    2.4440531E-02
 -7.8250002E-04    2.0332355E-02
 -7.8200002E-04    1.5740231E-02
 -7.8150001E-04    1.0966083E-02
 -7.8100001E-04    6.3222693E-03
 -7.8050001E-04    2.1121041E-03
 -7.8000000E-04   -1.3889491E-03
 -7.7950000E-04   -3.9501861E-03
 -7.7899999E-04   -5.3995904E-03
 -7.7849999E-04   -5.6339023E-03
 -7.7799999E-04   -4.6242084E-03
 -7.7749998E-04   -2.4167369E-03
 -7.7699998E-04    8.7113120E-04
 -7.7649998E-04    5.0593107E-03
 -7.7599997E-04    9.9173039E-03
 -7.7550003E-04    1.5179467E-02
 -7.7500002E-04    2.0562205E-02
 -7.7450002E-04    2.5781931E-02
 -7.7400001E-04    3.0572604E-02
 -7.7350001E-04    3.4701705E-02
 -7.7300001E-04    3.7983648E-02
 -7.7250000E-04    4.0289808E-02
 -7.7200000E-04    4.1554596E-02
 -7.7150000E-04    4.1777328E-02
 -7.7099999E-04    4.1019853E-02
 -7.7049999E-04    3.9400268E-02
 -7.6999998E-04    3.7083272E-02
 -7.6949998E-04    3.4267917E-02
 -7.6899998E-04    3.1173673E-02
 -7.6849997E-04    2.8025813E-02
 -7.6800003E-04    2.5041152E-02
 -7.6750002E-04    2.2415033E-02
 -7.6700002E-04    2.0310448E-02
 -7.6650002E-04    1.8849885E-02
 -7.6600001E-04    1.8110331E-02
 -7.6550001E-04    1.8121608E-02
 -7.6500000E-04    1.8867955E-02
 -7.6450000E-04    2.0292562E-02
 -7.6400000E-04    2.2304524E-02
 -7.6349999E-04    2.4787575E-02
 -7.6299999E-04    2.7609834E-02
 -7.6249999E-04    3.0633766E-02
 -7.6199998E-04    3.3725612E-02
 -7.6149998E-04    3.6763590E-02
 -7.6099997E-04    3.9644346E-02
 -7.6050003E-04    4.2287298E-02
 -7.6000002E-04    4.4636682E-02
 -7.5950002E-04    4.6661381E-02
 -7.5900002E-04    4.8352726E-02
 -7.5850001E-04    4.9720686E-02
 -7.5800001E-04    5.0788958E-02
 -7.5750001E-04    5.1589541E-02
 -7.5700000E-04    5.2157406E-02
 -7.5650000E-04    5.2525815E-02
 -7.5599999E-04    5.2722774E-02
 -7.5549999E-04    5.2768957E-02
 -7.5499999E-04    5.2677251E-02
 -7.5449998E-04    5.2453961E-02
 -7.5399998E-04    5.2101430E-02
 -7.5349997E-04    5.1621754E-02
 -7.5299997E-04    5.1021129E-02
 -7.5250003E-04    5.0314199E-02
 -7.5200002E-04    4.9527884E-02
 -7.5150002E-04    4.8704077E-02
 -7.5100001E-04    4.7900744E-02
 -7.5050001E-04    4.7191095E-02
 -7.5000001E-04    4.6660639E-02
 -7.4950000E-04    4.6402223E-02
 -7.4900000E-04    4.6509247E-02
 -7.4850000E-04    4.7067568E-02
 -7.4799999E-04    4.8146721E-02
 -7.4749999E-04    4.9791194E-02
 -7.4699998E-04    5.2012630E-02
 -7.4649998E-04    5.4783721E-02
 -7.4599998E-04    5.8034610E-02