 -1.2000001E-03    1.0000000E-24
 -1.1995001E-03    1.0000000E-24
 -1.1990000E-03    1.0000000E-24
 -1.1985000E-03    1.0000000E-24
 -1.1980000E-03    1.0000000E-24
 -1.1975000E-03    1.0000000E-24
 -1.1970000E-03    1.0000000E-24
 -1.1965000E-03    1.0000000E-24
 -1.1960000E-03    1.0000000E-24
 -1.1955000E-03    1.0000001E-24
 -1.1950000E-03    1.0000002E-24
 -1.1945000E-03    1.0000002E-24
 -1.1940000E-03    1.0000002E-24
 -1.1935000E-03    1.0000002E-24
 -1.1930000E-03    1.0000002E-24
 -1.1925000E-03    1.0000002E-24
 -1.1920000E-03    1.0000002E-24
 -1.1915000E-03    1.0000002E-24
 -1.1910000E-03    1.0000002E-24
 -1.1905000E-03    1.0000002E-24
 -1.1900000E-03    1.0000002E-24
 -1.1895000E-03    1.0000002E-24
 -1.1890000E-03    1.0000002E-24
 -1.1885000E-03    1.0000002E-24
 -1.1880000E-03    1.0000002E-24
 -1.1875000E-03    1.0000002E-24
 -1.1870000E-03    1.0000002E-24
 -1.1865000E-03    1.0000002E-24
 -1.1860000E-03    1.0000002E-24
 -1.1854999E-03    1.0000002E-24
 -1.1849999E-03    1.0000001E-24
 -1.1845001E-03    1.0000000E-24
 -1.1840001E-03    1.0000000E-24
 -1.1835000E-03    1.0000000E-24
 -1.1830000E-03    1.0000000E-24
 -1.1825000E-03    1.0000000E-24
 -1.1820000E-03    1.0000000E-24
 -1.1815000E-03    1.0000000E-24
 -1.1810000E-03    1.0000000E-24
 -1.1805000E-03    1.0000001E-24
 -1.1800000E-03    1.0000002E-24
 -1.1795000E-03    1.0000004E-24
 -1.1790000E-03    1.0000007E-24
 -1.1785000E-03    1.0000012E-24
 -1.1780000E-03    1.0000020E-24
 -1.1775000E-03    1.0000032E-24
 -1.1770000E-03    1.0000049E-24
 -1.1765000E-03    1.0000071E-24
 -1.1760000E-03    1.0000095E-24
 -1.1755000E-03    1.0000108E-24
 -1.1750000E-03    1.0000076E-24
 -1.1745000E-03    9.9999341E-25
 -1.1740000E-03    9.9995496E-25
 -1.1735000E-03    9.9986877E-25
 -1.1730000E-03    9.9969453E-25
 -1.1725000E-03    9.9936725E-25
 -1.1720000E-03    9.9878734E-25
 -1.1715000E-03    9.9781024E-25
 -1.1710000E-03    9.9623932E-25
 -1.1704999E-03    9.9382797E-25
 -1.1699999E-03    9.9030107E-25
 -1.1695001E-03    9.8541526E-25
 -1.1690001E-03    9.7907913E-25
 -1.1685000E-03    9.7157006E-25
 -1.1680000E-03    9.6388685E-25
 -1.1675000E-03    9.5828358E-25
 -1.1670000E-03    9.5902511E-25
 -1.1665000E-03    9.7338316E-25
 -1.1660000E-03    1.0128449E-24
 -1.1655000E-03    1.0944217E-24
 -1.1650000E-03    1.2418103E-24
 -1.1645000E-03    1.4859599E-24
 -1.1640000E-03    1.8643341E-24
 -1.1635000E-03    2.4178295E-24
 -1.1630000E-03    3.1839400E-24
 -1.1625000E-03    4.1844180E-24
 -1.1620000E-03    5.4054366E-24
 -1.1615000E-03    6.7682838E-24
 -1.1610000E-03    8.0890996E-24
 -1.1605000E-03    9.0273558E-24
 -1.1600000E-03    9.0249947E-24
 -1.1595000E-03    7.2416571E-24
 -1.1590000E-03    2.4965022E-24
 -1.1585000E-03   -6.7661168E-24
 -1.1580000E-03   -2.2461628E-23
 -1.1575000E-03   -4.6766167E-23
 -1.1570000E-03   -8.1889808E-23
 -1.1565000E-03   -1.2967162E-22
 -1.1560000E-03   -1.9094403E-22
 -1.1555000E-03   -2.6462078E-22
 -1.1549999E-03   -3.4648212E-22
 -1.1544999E-03   -4.2766899E-22
 -1.1540001E-03   -4.9295754E-22
 -1.1535001E-03   -5.1897389E-22
 -1.1530000E-03   -4.7262164E-22
 -1.1525000E-03   -3.1013661E-22
 -1.1520000E-03    2.2662027E-23
 -1.1515000E-03    5.8819887E-22
 -1.1510000E-03    1.4521960E-21
 -1.1505000E-03    2.6750355E-21
 -1.1500000E-03    4.2985680E-21
 -1.1495000E-03    6.3277192E-21
 -1.1490000E-03    8.7067044E-21
 -1.1485000E-03    1.1290397E-20
 -1.1480000E-03    1.3812462E-20
 -1.1475000E-03    1.5853315E-20
 -1.1470000E-03    1.6812627E-20
 -1.1465000E-03    1.5893127E-20
 -1.1460000E-03    1.2104347E-20
 -1.1455000E-03    4.2967235E-21
 -1.1450000E-03   -8.7624640E-21
 -1.1445000E-03   -2.8259873E-20
 -1.1440000E-03   -5.5143847E-20
 -1.1435000E-03   -8.9863396E-20
 -1.1430000E-03   -1.3203938E-19
 -1.1425000E-03   -1.8007895E-19
 -1.1420000E-03   -2.3075764E-19
 -1.1415000E-03   -2.7880950E-19
 -1.1410000E-03   -3.1658516E-19
 -1.1405000E-03   -3.3385558E-19
 -1.1399999E-03   -3.1785860E-19
 -1.1394999E-03   -2.5369676E-19
 -1.1390001E-03   -1.2520016E-19
 -1.1385001E-03    8.3640775E-20
 -1.1380001E-03    3.8659426E-19
 -1.1375000E-03    7.9242714E-19
 -1.1370000E-03    1.3015082E-18
 -1.1365000E-03    1.9019151E-18
 -1.1360000E-03    2.5653106E-18
 -1.1355000E-03    3.2429901E-18
 -1.1350000E-03    3.8626621E-18
 -1.1345000E-03    4.3266530E-18
 -1.1340000E-03    4.5123587E-18
 -1.1335000E-03    4.2758132E-18
 -1.1330000E-03    3.4592397E-18
 -1.1325000E-03    1.9033128E-18
 -1.1320000E-03   -5.3540490E-19
 -1.1315000E-03   -3.9618105E-18
 -1.1310000E-03   -8.4149423E-18
 -1.1305000E-03   -1.3837298E-17
 -1.1300000E-03   -2.0042972E-17
 -1.1295000E-03   -2.6687733E-17
 -1.1290000E-03   -3.3245137E-17
 -1.1285000E-03   -3.8993542E-17
 -1.1280000E-03   -4.3019487E-17
 -1.1275000E-03   -4.4243029E-17
 -1.1270000E-03   -4.1470161E-17
 -1.1265000E-03   -3.3476317E-17
 -1.1260000E-03   -1.9122938E-17
 -1.1255000E-03    2.4937984E-18
 -1.1250000E-03    3.1866822E-17
 -1.1244999E-03    6.8883743E-17
 -1.1239999E-03    1.1262840E-16
 -1.1235001E-03    1.6119770E-16
 -1.1230001E-03    2.1155777E-16
 -1.1225000E-03    2.5946700E-16
 -1.1220000E-03    2.9949560E-16
 -1.1215000E-03    3.2517020E-16
 -1.1210000E-03    3.2926897E-16
 -1.1205000E-03    3.0428370E-16
 -1.1200000E-03    2.4305515E-16
 -1.1195000E-03    1.3957116E-16
 -1.1190000E-03   -1.0102757E-17
 -1.1185000E-03   -2.0681117E-16
 -1.1180000E-03   -4.4729031E-16
 -1.1175000E-03   -7.2324046E-16
 -1.1170000E-03   -1.0206051E-15
 -1.1165000E-03   -1.3191850E-15
 -1.1160000E-03   -1.5927185E-15
 -1.1155000E-03   -1.8095510E-15
 -1.1150000E-03   -1.9339935E-15
 -1.1145000E-03   -1.9284278E-15
 -1.1140000E-03   -1.7561676E-15
 -1.1135000E-03   -1.3850058E-15
 -1.1130000E-03   -7.9130570E-16
 -1.1125000E-03    3.5601910E-17
 -1.1120000E-03    1.0890360E-15
 -1.1115000E-03    2.3410011E-15
 -1.1110000E-03    3.7391020E-15
 -1.1105000E-03    5.2048345E-15
 -1.1100000E-03    6.6337388E-15
 -1.1094999E-03    7.8978580E-15
 -1.1089999E-03    8.8508218E-15
 -1.1084999E-03    9.3357490E-15
 -1.1080001E-03    9.1959157E-15
 -1.1075001E-03    8.2879108E-15
 -1.1070000E-03    6.4967156E-15
 -1.1065000E-03    3.7518363E-15
 -1.1060000E-03    4.3367763E-17
 -1.1055000E-03   -4.5633862E-15
 -1.1050000E-03   -9.9162715E-15
 -1.1045000E-03   -1.5769211E-14
 -1.1040000E-03   -2.1781237E-14
 -1.1035000E-03   -2.7522974E-14
 -1.1030000E-03   -3.2491523E-14
 -1.1025000E-03   -3.6134297E-14
 -1.1020000E-03   -3.7881560E-14
 -1.1015000E-03   -3.7186915E-14
 -1.1010000E-03   -3.3573980E-14
 -1.1005000E-03   -2.6686878E-14
 -1.1000000E-03   -1.6341293E-14
 -1.0995000E-03   -2.5724477E-15
 -1.0990000E-03    1.4324325E-14
 -1.0985000E-03    3.3764590E-14
 -1.0980000E-03    5.4861629E-14
 -1.0975000E-03    7.6432770E-14
 -1.0970000E-03    9.7028037E-14
 -1.0965000E-03    1.1498292E-13
 -1.0960000E-03    1.2849563E-13
 -1.0955000E-03    1.3572743E-13
 -1.0950000E-03    1.3492343E-13
 -1.0945000E-03    1.2454858E-13
 -1.0939999E-03    1.0343300E-13
 -1.0934999E-03    7.0918484E-14
 -1.0930001E-03    2.6997076E-14
 -1.0925001E-03   -2.7568039E-14
 -1.0920000E-03   -9.1149846E-14
 -1.0915000E-03   -1.6120323E-13
 -1.0910000E-03   -2.3425901E-13
 -1.0905000E-03   -3.0597470E-13
 -1.0900000E-03   -3.7124953E-13
 -1.0895000E-03   -4.2440815E-13
 -1.0890000E-03   -4.5945544E-13
 -1.0885000E-03   -4.7040122E-13
 -1.0880000E-03   -4.5164949E-13
 -1.0875000E-03   -3.9844248E-13
 -1.0870000E-03   -3.0734432E-13
 -1.0865000E-03   -1.7674317E-13
 -1.0860000E-03   -7.3449124E-15
 -1.0855000E-03    1.9737550E-13
 -1.0850000E-03    4.3080435E-13
 -1.0845000E-03    6.8294583E-13
 -1.0840000E-03    9.4035337E-13
 -1.0835000E-03    1.1862838E-12
 -1.0830000E-03    1.4011202E-12
 -1.0825000E-03    1.5631035E-12
 -1.0820000E-03    1.6493945E-12
 -1.0815000E-03    1.6374764E-12
 -1.0810000E-03    1.5068759E-12
 -1.0805000E-03    1.2411524E-12
 -1.0800000E-03    8.3006773E-13
 -1.0795000E-03    2.7181062E-13
 -1.0790000E-03   -4.2489119E-13
 -1.0784999E-03   -1.2389709E-12
 -1.0779999E-03   -2.1357638E-12
 -1.0775001E-03   -3.0665297E-12
 -1.0770001E-03   -3.9689935E-12
 -1.0765000E-03   -4.7691118E-12
 -1.0760000E-03   -5.3842204E-12
 -1.0755000E-03   -5.7276306E-12
 -1.0750000E-03   -5.7146388E-12
 -1.0745000E-03   -5.2697703E-12
 -1.0740000E-03   -4.3349343E-12
 -1.0735000E-03   -2.8780014E-12
 -1.0730000E-03   -9.0116282E-13
 -1.0725000E-03    1.5516951E-12
 -1.0720000E-03    4.3894688E-12
 -1.0715000E-03    7.4710602E-12
 -1.0710000E-03    1.0606192E-11
 -1.0705000E-03    1.3560553E-11
 -1.0700000E-03    1.6065751E-11
 -1.0695000E-03    1.7834271E-11
 -1.0690000E-03    1.8579192E-11
 -1.0685000E-03    1.8037970E-11
 -1.0680000E-03    1.5999063E-11
 -1.0675000E-03    1.2329682E-11
 -1.0670000E-03    7.0024867E-12
 -1.0665000E-03    1.1868956E-13
 -1.0660000E-03   -8.0751473E-12
 -1.0655000E-03   -1.7179331E-11
 -1.0650000E-03   -2.6644723E-11
 -1.0645000E-03   -3.5789777E-11
 -1.0640000E-03   -4.3832035E-11
 -1.0634999E-03   -4.9934057E-11
 -1.0629999E-03   -5.3262578E-11
 -1.0625001E-03   -5.3058159E-11
 -1.0620001E-03   -4.8711264E-11
 -1.0615001E-03   -3.9839375E-11
 -1.0610000E-03   -2.6358624E-11
 -1.0605000E-03   -8.5428114E-12
 -1.0600000E-03    1.2937498E-11
 -1.0595000E-03    3.7002623E-11
 -1.0590000E-03    6.2183841E-11
 -1.0585000E-03    8.6679601E-11
 -1.0580000E-03    1.0844915E-10
 -1.0575000E-03    1.2534167E-10
 -1.0570000E-03    1.3525560E-10
 -1.0565000E-03    1.3631946E-10
 -1.0560000E-03    1.2708179E-10
 -1.0555000E-03    1.0669562E-10
 -1.0550000E-03    7.5080595E-11
 -1.0545000E-03    3.3045330E-11
 -1.0540000E-03   -1.7646423E-11
 -1.0535000E-03   -7.4280068E-11
 -1.0530000E-03   -1.3327495E-10
 -1.0525000E-03   -1.9035414E-10
 -1.0520000E-03   -2.4079697E-10
 -1.0515000E-03   -2.7976443E-10
 -1.0510000E-03   -3.0267966E-10
 -1.0505000E-03   -3.0563857E-10
 -1.0500000E-03   -2.8581915E-10
 -1.0495000E-03   -2.4185437E-10
 -1.0490000E-03   -1.7413149E-10
 -1.0485000E-03   -8.4982056E-11
 -1.0479999E-03    2.1267566E-11
 -1.0474999E-03    1.3840772E-10
 -1.0470001E-03    2.5862953E-10
 -1.0465001E-03    3.7297845E-10
 -1.0460000E-03    4.7195864E-10
 -1.0455000E-03    5.4625326E-10
 -1.0450000E-03    5.8751259E-10
 -1.0445000E-03    5.8914756E-10
 -1.0440000E-03    5.4706106E-10
 -1.0435000E-03    4.6024490E-10
 -1.0430000E-03    3.3117487E-10
 -1.0425000E-03    1.6594731E-10
 -1.0420000E-03   -2.5883129E-11
 -1.0415000E-03   -2.3178175E-10
 -1.0410000E-03   -4.3701773E-10
 -1.0405000E-03   -6.2571465E-10
 -1.0400000E-03   -7.8209889E-10
 -1.0395000E-03   -8.9185231E-10
 -1.0390000E-03   -9.4345420E-10
 -1.0385000E-03   -9.2938890E-10
 -1.0380000E-03   -8.4709095E-10
 -1.0375000E-03   -6.9951783E-10
 -1.0370000E-03   -4.9525789E-10
 -1.0365000E-03   -2.4812166E-10
 -1.0360000E-03    2.3791930E-11
 -1.0355000E-03    2.9951144E-10
 -1.0350000E-03    5.5699534E-10
 -1.0345000E-03    7.7517592E-10
 -1.0340000E-03    9.3606012E-10
 -1.0335000E-03    1.0266762E-09
 -1.0329999E-03    1.0406493E-09
 -1.0324999E-03    9.7920161E-10
 -1.0319999E-03    8.5141250E-10
 -1.0315001E-03    6.7363248E-10
 -1.0310001E-03    4.6802479E-10
 -1.0305000E-03    2.6029681E-10
 -1.0300000E-03    7.6784225E-11
 -1.0295000E-03   -5.8861048E-11
 -1.0290000E-03   -1.2904780E-10
 -1.0285000E-03   -1.2530529E-10
 -1.0280000E-03   -5.0625098E-11
 -1.0275000E-03    7.9293752E-11
 -1.0270000E-03    2.3620744E-10
 -1.0265000E-03    3.8109904E-10
 -1.0260000E-03    4.6761128E-10
 -1.0255000E-03    4.4701415E-10
 -1.0250000E-03    2.7439170E-10
 -1.0245000E-03   -8.4456567E-11
 -1.0240000E-03   -6.4606676E-10
 -1.0235000E-03   -1.4030963E-09
 -1.0230000E-03   -2.3196824E-09
 -1.0225000E-03   -3.3291820E-09
 -1.0220000E-03   -4.3349813E-09
 -1.0215000E-03   -5.2148650E-09
 -1.0210000E-03   -5.8291225E-09
 -1.0205000E-03   -6.0322289E-09
 -1.0200000E-03   -5.6875153E-09
 -1.0195000E-03   -4.6838480E-09
 -1.0190000E-03   -2.9529426E-09
 -1.0185000E-03   -4.8565757E-10
 -1.0180000E-03    2.6545894E-09
 -1.0174999E-03    6.3231593E-09
 -1.0169999E-03    1.0292001E-08
 -1.0165001E-03    1.4255310E-08
 -1.0160001E-03    1.7843869E-08
 -1.0155000E-03    2.0648187E-08
 -1.0150000E-03    2.2249742E-08
 -1.0145000E-03    2.2258698E-08
 -1.0140000E-03    2.0355627E-08
 -1.0135000E-03    1.6333960E-08
 -1.0130000E-03    1.0139281E-08
 -1.0125000E-03    1.9012967E-09
 -1.0120000E-03   -8.0456752E-09
 -1.0115000E-03   -1.9157474E-08
 -1.0110000E-03   -3.0692995E-08
 -1.0105000E-03   -4.1746929E-08
 -1.0100000E-03   -5.1302479E-08
 -1.0095000E-03   -5.8302358E-08
 -1.0090000E-03   -6.1734518E-08
 -1.0085000E-03   -6.0727125E-08
 -1.0080000E-03   -5.4645795E-08
 -1.0075000E-03   -4.3184738E-08
 -1.0070000E-03   -2.6442915E-08
 -1.0065000E-03   -4.9763562E-09
 -1.0060000E-03    2.0181352E-08
 -1.0055000E-03    4.7536666E-08
 -1.0050000E-03    7.5195608E-08
 -1.0045000E-03    1.0096579E-07
 -1.0040000E-03    1.2249805E-07
 -1.0035000E-03    1.3746063E-07
 -1.0030000E-03    1.4373569E-07
 -1.0025000E-03    1.3962392E-07
 -1.0019999E-03    1.2404116E-07
 -1.0014999E-03    9.6689106E-08
 -1.0010001E-03    5.8182398E-08
 -1.0005001E-03    1.0115859E-08
 -1.0000000E-03   -4.4941299E-08
 -9.9950004E-04   -1.0353286E-07
 -9.9900004E-04   -1.6148714E-07
 -9.9850004E-04   -2.1416852E-07
 -9.9800003E-04   -2.5679756E-07
 -9.9750003E-04   -2.8482091E-07
 -9.9700002E-04   -2.9430626E-07
 -9.9650002E-04   -2.8233248E-07
 -9.9600002E-04   -2.4734175E-07
 -9.9550001E-04   -1.8942035E-07
 -9.9500001E-04   -1.1047741E-07
 -9.9450001E-04   -1.4294881E-08
 -9.9400000E-04    9.3568907E-08
 -9.9350000E-04    2.0603018E-07
 -9.9299999E-04    3.1488096E-07
 -9.9249999E-04    4.1132370E-07
 -9.9199999E-04    4.8660939E-07
 -9.9149998E-04    5.3273800E-07
 -9.9099998E-04    5.4316945E-07
 -9.9049998E-04    5.1349036E-07
 -9.8999997E-04    4.4197557E-07
 -9.8949997E-04    3.2998975E-07
 -9.8899996E-04    1.8218145E-07
 -9.8849996E-04    6.4326797E-09
 -9.8799996E-04   -1.8645419E-07
 -9.8749995E-04   -3.8333175E-07
 -9.8699995E-04   -5.6952314E-07
 -9.8649994E-04   -7.2983363E-07
 -9.8600006E-04   -8.4969520E-07
 -9.8550005E-04   -9.1636304E-07
 -9.8500005E-04   -9.2007315E-07
 -9.8450005E-04   -8.5506457E-07
 -9.8400004E-04   -7.2037221E-07
 -9.8350004E-04   -5.2030828E-07
 -9.8300003E-04   -2.6456718E-07
 -9.8250003E-04    3.2085275E-08
 -9.8200003E-04    3.5054731E-07
 -9.8150002E-04    6.6851641E-07
 -9.8100002E-04    9.6196584E-07
 -9.8050002E-04    1.2068708E-06
 -9.8000001E-04    1.3810669E-06
 -9.7950001E-04    1.4661016E-06
 -9.7900000E-04    1.4489343E-06
 -9.7850000E-04    1.3233355E-06
 -9.7800000E-04    1.0908550E-06
 -9.7749999E-04    7.6125139E-07
 -9.7699999E-04    3.5231125E-07
 -9.7649998E-04   -1.1096851E-07
 -9.7599998E-04   -5.9781433E-07
 -9.7549998E-04   -1.0736522E-06
 -9.7499997E-04   -1.5025056E-06
 -9.7450003E-04   -1.8496531E-06
 -9.7400002E-04   -2.0843524E-06
 -9.7350002E-04   -2.1824210E-06
 -9.7300002E-04   -2.1284595E-06
 -9.7250001E-04   -1.9175270E-06
 -9.7200001E-04   -1.5561020E-06
 -9.7150001E-04   -1.0622138E-06
 -9.7100000E-04   -4.6469347E-07
 -9.7050000E-04    1.9844711E-07
 -9.6999999E-04    8.8242319E-07
 -9.6949999E-04    1.5387230E-06
 -9.6899999E-04    2.1185833E-06
 -9.6849998E-04    2.5766421E-06
 -9.6799998E-04    2.8744905E-06
 -9.6749997E-04    2.9838423E-06
 -9.6700003E-04    2.8890561E-06
 -9.6650003E-04    2.5887878E-06
 -9.6600002E-04    2.0966086E-06
 -9.6550002E-04    1.4405073E-06
 -9.6500001E-04    6.6127274E-07
 -9.6450001E-04   -1.9015150E-07
 -9.6400001E-04   -1.0561630E-06
 -9.6350000E-04   -1.8765994E-06
 -9.6300000E-04   -2.5931324E-06
 -9.6249999E-04   -3.1536188E-06
 -9.6199999E-04   -3.5160670E-06
 -9.6149999E-04   -3.6518952E-06
 -9.6099998E-04   -3.5482133E-06
 -9.6049998E-04   -3.2089310E-06
 -9.5999998E-04   -2.6545924E-06
 -9.5949997E-04   -1.9209333E-06
 -9.5900003E-04   -1.0562678E-06
 -9.5850002E-04   -1.1791124E-07
 -9.5800002E-04    8.3207829E-07
 -9.5750001E-04    1.7314917E-06
 -9.5700001E-04    2.5225179E-06
 -9.5650001E-04    3.1558791E-06
 -9.5600000E-04    3.5942126E-06
 -9.5550000E-04    3.8144296E-06
 -9.5500000E-04    3.8088704E-06
 -9.5449999E-04    3.5851829E-06
 -9.5399999E-04    3.1649690E-06
 -9.5349998E-04    2.5813551E-06
 -9.5299998E-04    1.8757371E-06
 -9.5249998E-04    1.0940336E-06
 -9.5199997E-04    2.8281400E-07
 -9.5150003E-04   -5.1431857E-07
 -9.5100002E-04   -1.2597434E-06
 -9.5050002E-04   -1.9239560E-06
 -9.5000002E-04   -2.4866390E-06
 -9.4950001E-04   -2.9366015E-06
 -9.4900001E-04   -3.2706507E-06
 -9.4850000E-04   -3.4915804E-06
 -9.4800000E-04   -3.6055644E-06
 -9.4750000E-04   -3.6193298E-06
 -9.4699999E-04   -3.5375117E-06
 -9.4649999E-04   -3.3605977E-06
 -9.4599999E-04   -3.0838069E-06
 -9.4549998E-04   -2.6971579E-06
 -9.4499998E-04   -2.1868466E-06
 -9.4449997E-04   -1.5378891E-06
 -9.4400003E-04   -7.3783087E-07
 -9.4350002E-04    2.1885020E-07
 -9.4300002E-04    1.3261415E-06
 -9.4250002E-04    2.5622849E-06
 -9.4200001E-04    3.8865796E-06
 -9.4150001E-04    5.2377895E-06
 -9.4100001E-04    6.5346449E-06
 -9.4050000E-04    7.6787655E-06
 -9.4000000E-04    8.5601159E-06
 -9.3949999E-04    9.0648255E-06
 -9.3899999E-04    9.0849817E-06
 -9.3849999E-04    8.5296797E-06
 -9.3799998E-04    7.3364563E-06
 -9.3749998E-04    5.4820107E-06
 -9.3699998E-04    2.9911034E-06
 -9.3649997E-04   -5.7497726E-08
 -9.3600003E-04   -3.5289827E-06
 -9.3550002E-04   -7.2351077E-06
 -9.3500002E-04   -1.0941828E-05
 -9.3450001E-04   -1.4381930E-05
 -9.3400001E-04   -1.7272163E-05
 -9.3350001E-04   -1.9333951E-05
 -9.3300000E-04   -2.0316280E-05
 -9.3250000E-04   -2.0019088E-05
 -9.3200000E-04   -1.8315184E-05
 -9.3149999E-04   -1.5168719E-05
 -9.3099999E-04   -1.0648254E-05
 -9.3049998E-04   -4.9327987E-06
 -9.2999998E-04    1.6904120E-06
 -9.2949998E-04    8.8370352E-06
 -9.2899997E-04    1.6045577E-05
 -9.2850003E-04    2.2805401E-05
 -9.2800002E-04    2.8591257E-05
 -9.2750002E-04    3.2902120E-05
 -9.2700002E-04    3.5301597E-05
 -9.2650001E-04    3.5456771E-05
 -9.2600001E-04    3.3172324E-05
 -9.2550000E-04    2.8416694E-05
 -9.2500000E-04    2.1337719E-05
 -9.2450000E-04    1.2265581E-05
 -9.2399999E-04    1.7019124E-06
 -9.2349999E-04   -9.7051234E-06
 -9.2299999E-04   -2.1198841E-05
 -9.2249998E-04   -3.1963104E-05
 -9.2199998E-04   -4.1179348E-05
 -9.2149997E-04   -4.8087739E-05
 -9.2100003E-04   -5.2047846E-05
 -9.2050002E-04   -5.2594260E-05
 -9.2000002E-04   -4.9482391E-05
 -9.1950002E-04   -4.2720374E-05
 -9.1900001E-04   -3.2583721E-05
 -9.1850001E-04   -1.9610652E-05
 -9.1800001E-04   -4.5772490E-06
 -9.1750000E-04    1.1546717E-05
 -9.1700000E-04    2.7659034E-05
 -9.1649999E-04    4.2599560E-05
 -9.1599999E-04    5.5233042E-05
 -9.1549999E-04    6.4534353E-05
 -9.1499998E-04    6.9669761E-05
 -9.1449998E-04    7.0067908E-05
 -9.1399997E-04    6.5474575E-05
 -9.1349997E-04    5.5986387E-05
 -9.1300003E-04    4.2059943E-05
 -9.1250002E-04    2.4494539E-05
 -9.1200002E-04    4.3887867E-06
 -9.1150001E-04   -1.6926853E-05
 -9.1100001E-04   -3.7977414E-05
 -9.1050001E-04   -5.7244946E-05
 -9.1000000E-04   -7.3277166E-05
 -9.0950000E-04   -8.4795334E-05
 -9.0899999E-04   -9.0793415E-05
 -9.0849999E-04   -9.0620772E-05
 -9.0799999E-04   -8.4041647E-05
 -9.0749998E-04   -7.1266499E-05
 -9.0699998E-04   -5.2951858E-05
 -9.0649998E-04   -3.0167801E-05
 -9.0599997E-04   -4.3346204E-06
 -9.0550003E-04    2.2867533E-05
 -9.0500002E-04    4.9610087E-05
 -9.0450002E-04    7.4040938E-05
 -9.0400001E-04    9.4413954E-05
 -9.0350001E-04    1.0921380E-04
 -9.0300001E-04    1.1726692E-04
 -9.0250000E-04    1.1783040E-04
 -9.0200000E-04    1.1065197E-04
 -9.0150000E-04    9.5996395E-05
 -9.0099999E-04    7.4635886E-05
 -9.0049999E-04    4.7804901E-05
 -8.9999998E-04    1.7122275E-05
 -8.9949998E-04   -1.5514155E-05
 -8.9899998E-04   -4.8052862E-05
 -8.9849997E-04   -7.8425175E-05
 -8.9800003E-04   -1.0468333E-04
 -8.9750002E-04   -1.2513027E-04
 -8.9700002E-04   -1.3843198E-04
 -8.9650002E-04   -1.4370469E-04
 -8.9600001E-04   -1.4057085E-04
 -8.9550001E-04   -1.2918032E-04
 -8.9500000E-04   -1.1019578E-04
 -8.9450000E-04   -8.4743835E-05
 -8.9400000E-04   -5.4335997E-05
 -8.9349999E-04   -2.0765572E-05
 -8.9299999E-04    1.4011637E-05
 -8.9249999E-04    4.8004156E-05
 -8.9199998E-04    7.9310055E-05
 -8.9149998E-04    1.0623191E-04
 -8.9099997E-04    1.2737386E-04
 -8.9050003E-04    1.4171483E-04
 -8.9000002E-04    1.4865377E-04
 -8.8950002E-04    1.4802536E-04
 -8.8900002E-04    1.4008663E-04
 -8.8850001E-04    1.2547728E-04
 -8.8800001E-04    1.0515812E-04
 -8.8750001E-04    8.0333943E-05
 -8.8700000E-04    5.2367242E-05
 -8.8650000E-04    2.2689988E-05
 -8.8599999E-04   -7.2799407E-06
 -8.8549999E-04   -3.6212008E-05
 -8.8499999E-04   -6.2921630E-05
 -8.8449998E-04   -8.6411550E-05
 -8.8399998E-04   -1.0589504E-04
 -8.8349998E-04   -1.2080197E-04
 -8.8299997E-04   -1.3077038E-04
 -8.8250003E-04   -1.3562685E-04
 -8.8200002E-04   -1.3536068E-04
 -8.8150002E-04   -1.3009612E-04
 -8.8100001E-04   -1.2006716E-04
 -8.8050001E-04   -1.0559848E-04
 -8.8000001E-04   -8.7094653E-05
 -8.7950000E-04   -6.5038737E-05
 -8.7900000E-04   -3.9999013E-05
 -8.7850000E-04   -1.2641895E-05
 -8.7799999E-04    1.6252829E-05
 -8.7749999E-04    4.5778983E-05
 -8.7699998E-04    7.4898140E-05
 -8.7649998E-04    1.0244572E-04
 -8.7599998E-04    1.2715298E-04
 -8.7549997E-04    1.4768759E-04
 -8.7500003E-04    1.6271342E-04
 -8.7450002E-04    1.7096836E-04
 -8.7400002E-04    1.7135633E-04
 -8.7350002E-04    1.6304795E-04
 -8.7300001E-04    1.4558177E-04
 -8.7250001E-04    1.1895755E-04
 -8.7200000E-04    8.3711435E-05
 -8.7150000E-04    4.0963940E-05
 -8.7100000E-04   -7.5678809E-06
 -8.7049999E-04   -5.9600537E-05
 -8.6999999E-04   -1.1236013E-04
 -8.6949999E-04   -1.6270477E-04
 -8.6899998E-04   -2.0729007E-04
 -8.6849998E-04   -2.4277031E-04
 -8.6799997E-04   -2.6602470E-04
 -8.6750003E-04   -2.7439435E-04
 -8.6700002E-04   -2.6591381E-04
 -8.6650002E-04   -2.3951921E-04
 -8.6600002E-04   -1.9521560E-04
 -8.6550001E-04   -1.3418659E-04
 -8.6500001E-04   -5.8833029E-05
 -8.6450001E-04    2.7269471E-05
 -8.6400000E-04    1.1949855E-04
 -8.6350000E-04    2.1239775E-04
 -8.6299999E-04    2.9996649E-04
 -8.6249999E-04    3.7601372E-04
 -8.6199999E-04    4.3455604E-04
 -8.6149998E-04    4.7023629E-04
 -8.6099998E-04    4.7873534E-04
 -8.6049997E-04    4.5714740E-04
 -8.5999997E-04    4.0429083E-04
 -8.5950003E-04    3.2092683E-04
 -8.5900002E-04    2.0986493E-04
 -8.5850002E-04    7.5938246E-05
 -8.5800001E-04   -7.4158539E-05
 -8.5750001E-04   -2.3216855E-04
 -8.5700001E-04   -3.8869836E-04
 -8.5650000E-04   -5.3375057E-04
 -8.5600000E-04   -6.5733417E-04
 -8.5549999E-04   -7.5011782E-04
 -8.5499999E-04   -8.0408371E-04
 -8.5449999E-04   -8.1313885E-04
 -8.5399998E-04   -7.7363953E-04
 -8.5349998E-04   -6.8478781E-04
 -8.5299998E-04   -5.4886623E-04
 -8.5249997E-04   -3.7128304E-04
 -8.5200003E-04   -1.6041528E-04
 -8.5150002E-04    7.2753726E-05
 -8.5100002E-04    3.1518962E-04
 -8.5050002E-04    5.5252982E-04
 -8.5000001E-04    7.6993468E-04
 -8.4950001E-04    9.5301832E-04
 -8.4900000E-04    1.0888007E-03
 -8.4850000E-04    1.1666185E-03
 -8.4800000E-04    1.1789333E-03
 -8.4749999E-04    1.1219746E-03
 -8.4699999E-04    9.9616998E-04
 -8.4649998E-04    8.0631900E-04
 -8.4599998E-04    5.6148949E-04
 -8.4549998E-04    2.7462660E-04
 -8.4499997E-04   -3.8110960E-05
 -8.4450003E-04   -3.5825776E-04
 -8.4400002E-04   -6.6614128E-04
 -8.4350002E-04   -9.4211043E-04
 -8.4300002E-04   -1.1678160E-03
 -8.4250001E-04   -1.3274595E-03
 -8.4200001E-04   -1.4089257E-03
 -8.4150000E-04   -1.4047178E-03
 -8.4100000E-04   -1.3126233E-03
 -8.4050000E-04   -1.1360556E-03
 -8.3999999E-04   -8.8403525E-04
 -8.3949999E-04   -5.7079684E-04
 -8.3899999E-04   -2.1503431E-04
 -8.3849998E-04    1.6117943E-04
 -8.3799998E-04    5.3373689E-04
 -8.3749997E-04    8.7802450E-04
 -8.3700003E-04    1.1705382E-03
 -8.3650002E-04    1.3904816E-03
 -8.3600002E-04    1.5212357E-03
 -8.3550002E-04    1.5515998E-03
 -8.3500001E-04    1.4767102E-03
 -8.3450001E-04    1.2985643E-03
 -8.3400001E-04    1.0261032E-03
 -8.3350000E-04    6.7483197E-04
 -8.3300000E-04    2.6599030E-04
 -8.3249999E-04   -1.7468593E-04
 -8.3199999E-04   -6.1853894E-04
 -8.3149999E-04   -1.0358044E-03
 -8.3099998E-04   -1.3975522E-03
 -8.3049998E-04   -1.6776252E-03
 -8.2999998E-04   -1.8544492E-03
 -8.2949997E-04   -1.9125842E-03
 -8.2900003E-04   -1.8439135E-03
 -8.2850002E-04   -1.6483773E-03
 -8.2800002E-04   -1.3341957E-03
 -8.2750001E-04   -9.1755181E-04
 -8.2700001E-04   -4.2174663E-04
 -8.2650001E-04    1.2412980E-04
 -8.2600000E-04    6.8693294E-04
 -8.2550000E-04    1.2314972E-03
 -8.2500000E-04    1.7228402E-03
 -8.2449999E-04    2.1283955E-03
 -8.2399999E-04    2.4201304E-03
 -8.2349998E-04    2.5764096E-03
 -8.2299998E-04    2.5834774E-03
 -8.2249998E-04    2.4364635E-03
 -8.2199997E-04    2.1398391E-03
 -8.2150003E-04    1.7072912E-03
 -8.2100002E-04    1.1610158E-03
 -8.2050002E-04    5.3047563E-04
 -8.2000002E-04   -1.4930536E-04
 -8.1950001E-04   -8.3980343E-04
 -8.1900001E-04   -1.5012838E-03
 -8.1850000E-04   -2.0951738E-03
 -8.1800000E-04   -2.5863738E-03
 -8.1750000E-04   -2.9453612E-03
 -8.1699999E-04   -3.1499602E-03
 -8.1649999E-04   -3.1866715E-03
 -8.1599999E-04   -3.0514810E-03
 -8.1549998E-04   -2.7501066E-03
 -8.1499998E-04   -2.2976703E-03
 -8.1449997E-04   -1.7178252E-03
 -8.1400003E-04   -1.0413937E-03
 -8.1350002E-04   -3.0460636E-04
 -8.1300002E-04    4.5295159E-04
 -8.1250002E-04    1.1905592E-03
 -8.1200001E-04    1.8686156E-03
 -8.1150001E-04    2.4508026E-03
 -8.1100001E-04    2.9060342E-03
 -8.1050000E-04    3.2100908E-03
 -8.1000000E-04    3.3468544E-03
 -8.0949999E-04    3.3090895E-03
 -8.0899999E-04    3.0987398E-03
 -8.0849999E-04    2.7267397E-03
 -8.0799998E-04    2.2123654E-03
 -8.0749998E-04    1.5821697E-03
 -8.0699997E-04    8.6857507E-04
 -8.0649997E-04    1.0819593E-04
 -8.0600003E-04   -6.6001213E-04
 -8.0550002E-04   -1.3966862E-03
 -8.0500002E-04   -2.0639799E-03
 -8.0450001E-04   -2.6273879E-03
 -8.0400001E-04   -3.0573967E-03
 -8.0350001E-04   -3.3308892E-03
 -8.0300000E-04   -3.4322522E-03
 -8.0250000E-04   -3.3541464E-03
 -8.0200000E-04   -3.0979104E-03
 -8.0149999E-04   -2.6735878E-03
 -8.0099999E-04   -2.0995771E-03
 -8.0049998E-04   -1.4019173E-03
 -7.9999998E-04   -6.1323360E-04
 -7.9949998E-04    2.2862184E-04
 -7.9899997E-04    1.0821886E-03
 -7.9850003E-04    1.9042213E-03
 -7.9800002E-04    2.6516528E-03
 -7.9750002E-04    3.2836269E-03
 -7.9700002E-04    3.7635157E-03
 -7.9650001E-04    4.0608430E-03
 -7.9600001E-04    4.1530221E-03
 -7.9550000E-04    4.0268162E-03
 -7.9500000E-04    3.6794432E-03
 -7.9450000E-04    3.1192407E-03
 -7.9399999E-04    2.3658345E-03
 -7.9349999E-04    1.4497552E-03
 -7.9299998E-04    4.1148710E-04
 -7.9249998E-04   -7.0005149E-04
 -7.9199998E-04   -1.8295625E-03
 -7.9149997E-04   -2.9178909E-03
 -7.9100003E-04   -3.9049189E-03
 -7.9050002E-04   -4.7327052E-03
 -7.9000002E-04   -5.3487201E-03
 -7.8950002E-04   -5.7089929E-03
 -7.8900001E-04   -5.7810098E-03
 -7.8850001E-04   -5.5461624E-03
 -7.8800000E-04   -5.0015817E-03
 -7.8750000E-04   -4.1612131E-03
 -7.8700000E-04   -3.0560107E-03
 -7.8649999E-04   -1.7331773E-03
 -7.8599999E-04   -2.5443960E-04
 -7.8549999E-04    1.3066186E-03
 -7.8499998E-04    2.8680579E-03
 -7.8449998E-04    4.3437760E-03
 -7.8399997E-04    5.6481790E-03
 -7.8350003E-04    6.7010927E-03
 -7.8300002E-04    7.4326261E-03
 -7.8250002E-04    7.7877096E-03
 -7.8200002E-04    7.7299993E-03
 -7.8150001E-04    7.2448999E-03
 -7.8100001E-04    6.3414606E-03
 -7.8050001E-04    5.0529838E-03
 -7.8000000E-04    3.4362311E-03
 -7.7950000E-04    1.5692161E-03
 -7.7899999E-04   -4.5236558E-04
 -7.7849999E-04   -2.5199088E-03
 -7.7799999E-04   -4.5176521E-03
 -7.7749998E-04   -6.3291062E-03
 -7.7699998E-04   -7.8437980E-03
 -7.7649998E-04   -8.9639490E-03
 -7.7599997E-04   -9.6106650E-03
 -7.7550003E-04   -9.7292578E-03
 -7.7500002E-04   -9.2933383E-03
 -7.7450002E-04   -8.3073825E-03
 -7.7400001E-04   -6.8075568E-03
 -7.7350001E-04   -4.8606950E-03
 -7.7300001E-04   -2.5614079E-03
 -7.7250000E-04   -2.7443592E-05
 -7.7200000E-04    2.6064820E-03
 -7.7150000E-04    5.1960698E-03
 -7.7099999E-04    7.5956201E-03
 -7.7049999E-04    9.6665518E-03
 -7.6999998E-04    1.1285746E-02
 -7.6949998E-04    1.2353201E-02
 -7.6899998E-04    1.2798526E-02
 -7.6849997E-04    1.2585821E-02
 -7.6800003E-04    1.1716628E-02
 -7.6750002E-04    1.0230707E-02
 -7.6700002E-04    8.2045281E-03
 -7.6650002E-04    5.7475297E-03
 -7.6600001E-04    2.9963059E-03
 -7.6550001E-04    1.0702699E-04
 -7.6500000E-04   -2.7534736E-03
 -7.6450000E-04   -5.4174368E-03
 -7.6400000E-04   -7.7261538E-03
 -7.6349999E-04   -9.5395772E-03
 -7.6299999E-04   -1.0744960E-02
 -7.6249999E-04   -1.1263983E-02
 -7.6199998E-04   -1.1057882E-02
 -7.6149998E-04   -1.0130247E-02
 -7.6099997E-04   -8.5272538E-03
 -7.6050003E-04   -6.3352943E-03
 -7.6000002E-04   -3.6760927E-03
 -7.5950002E-04   -6.9958658E-04
 -7.5900002E-04    2.4250199E-03
 -7.5850001E-04    5.5194930E-03
 -7.5800001E-04    8.4074726E-03
 -7.5750001E-04    1.0925366E-02
 -7.5700000E-04    1.2932535E-02
 -7.5650000E-04    1.4320145E-02
 -7.5599999E-04    1.5018064E-02
 -7.5549999E-04    1.4999394E-02
 -7.5499999E-04    1.4282295E-02
 -7.5449998E-04    1.2928964E-02
 -7.5399998E-04    1.1041804E-02
 -7.5349997E-04    8.7570129E-03
 -7.5299997E-04    6.2359697E-03
 -7.5250003E-04    3.6549589E-03
 -7.5200002E-04    1.1938710E-03
 -7.5150002E-04   -9.7538612E-04
 -7.5100001E-04   -2.7000317E-03
 -7.5050001E-04   -3.8563858E-03
 -7.5000001E-04   -4.3580174E-03
 -7.4950000E-04   -4.1615297E-03
 -7.4900000E-04   -3.2695949E-03
 -7.4850000E-04   -1.7310232E-03
 -7.4799999E-04    3.6215314E-04
 -7.4749999E-04    2.8804059E-03
 -7.4699998E-04    5.6648944E-03
 -7.4649998E-04    8.5375784E-03
 -7.4599998E-04    1.1312624E-02