 -1.2000001E-03    1.0000000E-24
 -1.1995001E-03    1.0000000E-24
 -1.1990000E-03    1.0000000E-24
 -1.1985000E-03    1.0000000E-24
 -1.1980000E-03    1.0000000E-24
 -1.1975000E-03    1.0000000E-24
 -1.1970000E-03    1.0000000E-24
 -1.1965000E-03    1.0000000E-24
 -1.1960000E-03    1.0000001E-24
 -1.1955000E-03    1.0000001E-24
 -1.1950000E-03    1.0000001E-24
 -1.1945000E-03    1.0000001E-24
 -1.1940000E-03    1.0000001E-24
 -1.1935000E-03    1.0000001E-24
 -1.1930000E-03    1.0000001E-24
 -1.1925000E-03    1.0000001E-24
 -1.1920000E-03    1.0000001E-24
 -1.1915000E-03    1.0000001E-24
 -1.1910000E-03    1.0000001E-24
 -1.1905000E-03    1.0000001E-24
 -1.1900000E-03    1.0000001E-24
 -1.1895000E-03    1.0000001E-24
 -1.1890000E-03    1.0000001E-24
 -1.1885000E-03    1.0000001E-24
 -1.1880000E-03    1.0000001E-24
 -1.1875000E-03    1.0000001E-24
 -1.1870000E-03    1.0000002E-24
 -1.1865000E-03    1.0000002E-24
 -1.1860000E-03    1.0000002E-24
 -1.1854999E-03    1.0000002E-24
 -1.1849999E-03    1.0000002E-24
 -1.1845001E-03    1.0000002E-24
 -1.1840001E-03    1.0000002E-24
 -1.1835000E-03    1.0000002E-24
 -1.1830000E-03    1.0000002E-24
 -1.1825000E-03    1.0000002E-24
 -1.1820000E-03    1.0000002E-24
 -1.1815000E-03    1.0000001E-24
 -1.1810000E-03    1.0000001E-24
 -1.1805000E-03    1.0000001E-24
 -1.1800000E-03    1.0000001E-24
 -1.1795000E-03    1.0000001E-24
 -1.1790000E-03    1.0000001E-24
 -1.1785000E-03    1.0000001E-24
 -1.1780000E-03    1.0000001E-24
 -1.1775000E-03    1.0000001E-24
 -1.1770000E-03    1.0000001E-24
 -1.1765000E-03    1.0000001E-24
 -1.1760000E-03    1.0000001E-24
 -1.1755000E-03    1.0000001E-24
 -1.1750000E-03    1.0000001E-24
 -1.1745000E-03    1.0000001E-24
 -1.1740000E-03    1.0000001E-24
 -1.1735000E-03    1.0000001E-24
 -1.1730000E-03    1.0000001E-24
 -1.1725000E-03    1.0000001E-24
 -1.1720000E-03    1.0000001E-24
 -1.1715000E-03    1.0000001E-24
 -1.1710000E-03    1.0000001E-24
 -1.1704999E-03    1.0000001E-24
 -1.1699999E-03    1.0000001E-24
 -1.1695001E-03    1.0000001E-24
 -1.1690001E-03    1.0000001E-24
 -1.1685000E-03    1.0000001E-24
 -1.1680000E-03    1.0000001E-24
 -1.1675000E-03    1.0000001E-24
 -1.1670000E-03    1.0000002E-24
 -1.1665000E-03    1.0000002E-24
 -1.1660000E-03    1.0000002E-24
 -1.1655000E-03    1.0000002E-24
 -1.1650000E-03    1.0000003E-24
 -1.1645000E-03    1.0000004E-24
 -1.1640000E-03    1.0000004E-24
 -1.1635000E-03    1.0000004E-24
 -1.1630000E-03    1.0000004E-24
 -1.1625000E-03    1.0000004E-24
 -1.1620000E-03    1.0000004E-24
 -1.1615000E-03    1.0000004E-24
 -1.1610000E-03    1.0000004E-24
 -1.1605000E-03    1.0000004E-24
 -1.1600000E-03    1.0000004E-24
 -1.1595000E-03    1.0000004E-24
 -1.1590000E-03    1.0000004E-24
 -1.1585000E-03    1.0000003E-24
 -1.1580000E-03    1.0000002E-24
 -1.1575000E-03    1.0000001E-24
 -1.1570000E-03    1.0000000E-24
 -1.1565000E-03    9.9999992E-25
 -1.1560000E-03    9.9999982E-25
 -1.1555000E-03    9.9999972E-25
 -1.1549999E-03    9.9999963E-25
 -1.1544999E-03    9.9999963E-25
 -1.1540001E-03    9.9999963E-25
 -1.1535001E-03    9.9999963E-25
 -1.1530000E-03    9.9999972E-25
 -1.1525000E-03    9.9999982E-25
 -1.1520000E-03    9.9999992E-25
 -1.1515000E-03    1.0000000E-24
 -1.1510000E-03    1.0000001E-24
 -1.1505000E-03    1.0000002E-24
 -1.1500000E-03    1.0000003E-24
 -1.1495000E-03    1.0000004E-24
 -1.1490000E-03    1.0000004E-24
 -1.1485000E-03    1.0000004E-24
 -1.1480000E-03    1.0000004E-24
 -1.1475000E-03    1.0000003E-24
 -1.1470000E-03    1.0000002E-24
 -1.1465000E-03    1.0000001E-24
 -1.1460000E-03    1.0000000E-24
 -1.1455000E-03    9.9999992E-25
 -1.1450000E-03    9.9999982E-25
 -1.1445000E-03    9.9999972E-25
 -1.1440000E-03    9.9999963E-25
 -1.1435000E-03    9.9999963E-25
 -1.1430000E-03    9.9999982E-25
 -1.1425000E-03    1.0000000E-24
 -1.1420000E-03    1.0000004E-24
 -1.1415000E-03    1.0000008E-24
 -1.1410000E-03    1.0000012E-24
 -1.1405000E-03    1.0000014E-24
 -1.1399999E-03    1.0000023E-24
 -1.1394999E-03    1.0000027E-24
 -1.1390001E-03    1.0000033E-24
 -1.1385001E-03    1.0000041E-24
 -1.1380001E-03    1.0000043E-24
 -1.1375000E-03    1.0000039E-24
 -1.1370000E-03    1.0000033E-24
 -1.1365000E-03    1.0000049E-24
 -1.1360000E-03    1.0000074E-24
 -1.1355000E-03    1.0000085E-24
 -1.1350000E-03    1.0000089E-24
 -1.1345000E-03    1.0000098E-24
 -1.1340000E-03    1.0000138E-24
 -1.1335000E-03    1.0000099E-24
 -1.1330000E-03    9.9999913E-25
 -1.1325000E-03    9.9998089E-25
 -1.1320000E-03    9.9995880E-25
 -1.1315000E-03    9.9993533E-25
 -1.1310000E-03    9.9990999E-25
 -1.1305000E-03    9.9986295E-25
 -1.1300000E-03    9.9975853E-25
 -1.1295000E-03    9.9967669E-25
 -1.1290000E-03    9.9966268E-25
 -1.1285000E-03    9.9962797E-25
 -1.1280000E-03    9.9973062E-25
 -1.1275000E-03    9.9990950E-25
 -1.1270000E-03    1.0000583E-24
 -1.1265000E-03    1.0001788E-24
 -1.1260000E-03    1.0001845E-24
 -1.1255000E-03    1.0001902E-24
 -1.1250000E-03    1.0000454E-24
 -1.1244999E-03    9.9984028E-25
 -1.1239999E-03    9.9924370E-25
 -1.1235001E-03    9.9830071E-25
 -1.1230001E-03    9.9767387E-25
 -1.1225000E-03    9.9671589E-25
 -1.1220000E-03    9.9529111E-25
 -1.1215000E-03    9.9391149E-25
 -1.1210000E-03    9.9382689E-25
 -1.1205000E-03    9.9464572E-25
 -1.1200000E-03    9.9556997E-25
 -1.1195000E-03    9.9790983E-25
 -1.1190000E-03    1.0022374E-24
 -1.1185000E-03    1.0081312E-24
 -1.1180000E-03    1.0130612E-24
 -1.1175000E-03    1.0176298E-24
 -1.1170000E-03    1.0187047E-24
 -1.1165000E-03    1.0221889E-24
 -1.1160000E-03    1.0214566E-24
 -1.1155000E-03    1.0167487E-24
 -1.1150000E-03    1.0034877E-24
 -1.1145000E-03    9.8667300E-25
 -1.1140000E-03    9.7061850E-25
 -1.1135000E-03    9.5034783E-25
 -1.1130000E-03    9.2887257E-25
 -1.1125000E-03    9.1173457E-25
 -1.1120000E-03    9.0182460E-25
 -1.1115000E-03    9.0492581E-25
 -1.1110000E-03    9.1477356E-25
 -1.1105000E-03    9.1402020E-25
 -1.1100000E-03    9.4314317E-25
 -1.1094999E-03    1.0040692E-24
 -1.1089999E-03    1.0486113E-24
 -1.1084999E-03    1.0979695E-24
 -1.1080001E-03    1.1032364E-24
 -1.1075001E-03    1.0745309E-24
 -1.1070000E-03    1.0236588E-24
 -1.1065000E-03    9.3038107E-25
 -1.1060000E-03    8.5252257E-25
 -1.1055000E-03    7.6695177E-25
 -1.1050000E-03    5.8885922E-25
 -1.1045000E-03    3.5679696E-25
 -1.1040000E-03    2.4423851E-25
 -1.1035000E-03    1.9336027E-25
 -1.1030000E-03    3.1210135E-25
 -1.1025000E-03    6.8913079E-25
 -1.1020000E-03    1.3128837E-24
 -1.1015000E-03    1.6248684E-24
 -1.1010000E-03    1.9869649E-24
 -1.1005000E-03    2.7731109E-24
 -1.1000000E-03    3.2046033E-24
 -1.0995000E-03    3.4510653E-24
 -1.0990000E-03    3.8517293E-24
 -1.0985000E-03    5.0233909E-24
 -1.0980000E-03    6.3184157E-24
 -1.0975000E-03    7.7059601E-24
 -1.0970000E-03    9.0009889E-24
 -1.0965000E-03    1.0003047E-23
 -1.0960000E-03    1.0974260E-23
 -1.0955000E-03    1.1498283E-23
 -1.0950000E-03    9.8249486E-24
 -1.0945000E-03    7.1184852E-24
 -1.0939999E-03    4.0727721E-24
 -1.0934999E-03    1.6353067E-25
 -1.0930001E-03   -3.0672610E-24
 -1.0925001E-03   -5.8046551E-24
 -1.0920000E-03   -1.0515812E-23
 -1.0915000E-03   -1.5843777E-23
 -1.0910000E-03   -1.7347648E-23
 -1.0905000E-03   -1.4040533E-23
 -1.0900000E-03   -1.2522108E-23
 -1.0895000E-03   -5.9150503E-24
 -1.0890000E-03    3.2864829E-24
 -1.0885000E-03    2.1123153E-23
 -1.0880000E-03    4.3524116E-23
 -1.0875000E-03    6.9749365E-23
 -1.0870000E-03    9.2027308E-23
 -1.0865000E-03    1.0221620E-22
 -1.0860000E-03    1.1487233E-22
 -1.0855000E-03    1.2358106E-22
 -1.0850000E-03    1.3080953E-22
 -1.0845000E-03    1.3483073E-22
 -1.0840000E-03    1.3342406E-22
 -1.0835000E-03    1.0820881E-22
 -1.0830000E-03    5.9370076E-23
 -1.0825000E-03    7.2003752E-24
 -1.0820000E-03   -6.0759537E-23
 -1.0815000E-03   -1.3710827E-22
 -1.0810000E-03   -2.1493746E-22
 -1.0805000E-03   -2.9720785E-22
 -1.0800000E-03   -3.5579318E-22
 -1.0795000E-03   -4.1339161E-22
 -1.0790000E-03   -4.7395036E-22
 -1.0784999E-03   -5.1477155E-22
 -1.0779999E-03   -4.8355109E-22
 -1.0775001E-03   -4.2025682E-22
 -1.0770001E-03   -3.0296179E-22
 -1.0765000E-03   -1.1855939E-22
 -1.0760000E-03    2.4394735E-23
 -1.0755000E-03    1.2886140E-22
 -1.0750000E-03    2.5701262E-22
 -1.0745000E-03    3.7332165E-22
 -1.0740000E-03    4.3041725E-22
 -1.0735000E-03    4.6185294E-22
 -1.0730000E-03    4.4986498E-22
 -1.0725000E-03    5.2669347E-22
 -1.0720000E-03    4.9595294E-22
 -1.0715000E-03    3.4876212E-22
 -1.0710000E-03    2.4313738E-22
 -1.0705000E-03    1.0395941E-22
 -1.0700000E-03   -4.3112738E-23
 -1.0695000E-03   -1.9215657E-22
 -1.0690000E-03   -2.8198579E-22
 -1.0685000E-03   -2.6523109E-22
 -1.0680000E-03   -1.5768173E-22
 -1.0675000E-03   -7.3813355E-23
 -1.0670000E-03   -3.7312584E-23
 -1.0665000E-03   -1.6265697E-22
 -1.0660000E-03   -1.9326138E-22
 -1.0655000E-03   -1.4442291E-22
 -1.0650000E-03   -6.1540207E-23
 -1.0645000E-03   -1.8195294E-22
 -1.0640000E-03   -4.2868630E-22
 -1.0634999E-03   -6.0436585E-22
 -1.0629999E-03   -6.6162120E-22
 -1.0625001E-03   -6.7150839E-22
 -1.0620001E-03   -4.9981566E-22
 -1.0615001E-03    8.6360888E-23
 -1.0610000E-03    7.7121799E-22
 -1.0605000E-03    1.9041112E-21
 -1.0600000E-03    3.4794868E-21
 -1.0595000E-03    4.8061621E-21
 -1.0590000E-03    5.8525633E-21
 -1.0585000E-03    6.0384100E-21
 -1.0580000E-03    4.9926388E-21
 -1.0575000E-03    3.5757960E-21
 -1.0570000E-03    1.7010432E-21
 -1.0565000E-03   -5.6056067E-22
 -1.0560000E-03   -2.5221413E-21
 -1.0555000E-03   -3.2994730E-21
 -1.0550000E-03   -3.5409114E-21
 -1.0545000E-03   -3.8612803E-21
 -1.0540000E-03   -3.8145054E-21
 -1.0535000E-03   -2.2834511E-21
 -1.0530000E-03    1.0476913E-21
 -1.0525000E-03    4.6788785E-21
 -1.0520000E-03    9.7469705E-21
 -1.0515000E-03    1.5509837E-20
 -1.0510000E-03    2.2062217E-20
 -1.0505000E-03    2.8046131E-20
 -1.0500000E-03    3.4424746E-20
 -1.0495000E-03    3.8545363E-20
 -1.0490000E-03    3.3432773E-20
 -1.0485000E-03    2.0373830E-20
 -1.0479999E-03    4.3226407E-21
 -1.0474999E-03   -1.8786700E-20
 -1.0470001E-03   -4.5433070E-20
 -1.0465001E-03   -7.6784895E-20
 -1.0460000E-03   -1.0510511E-19
 -1.0455000E-03   -1.3089898E-19
 -1.0450000E-03   -1.5031374E-19
 -1.0445000E-03   -1.5867555E-19
 -1.0440000E-03   -1.5819497E-19
 -1.0435000E-03   -1.5127197E-19
 -1.0430000E-03   -1.3032737E-19
 -1.0425000E-03   -9.0750431E-20
 -1.0420000E-03   -5.2057529E-20
 -1.0415000E-03   -1.5322375E-20
 -1.0410000E-03    7.6757191E-21
 -1.0405000E-03    2.5937004E-20
 -1.0400000E-03    4.5082733E-20
 -1.0395000E-03    6.0186185E-20
 -1.0390000E-03    7.5794941E-20
 -1.0385000E-03    8.7866556E-20
 -1.0380000E-03    9.6400869E-20
 -1.0375000E-03    1.0341889E-19
 -1.0370000E-03    1.0285721E-19
 -1.0365000E-03    1.0886382E-19
 -1.0360000E-03    1.3204939E-19
 -1.0355000E-03    1.6028734E-19
 -1.0350000E-03    2.0166264E-19
 -1.0345000E-03    2.5150103E-19
 -1.0340000E-03    3.4681455E-19
 -1.0335000E-03    4.8659303E-19
 -1.0329999E-03    5.6573839E-19
 -1.0324999E-03    6.2063108E-19
 -1.0319999E-03    6.5531342E-19
 -1.0315001E-03    6.7180575E-19
 -1.0310001E-03    6.0947567E-19
 -1.0305000E-03    5.3704164E-19
 -1.0300000E-03    4.5652527E-19
 -1.0295000E-03    2.7697427E-19
 -1.0290000E-03    1.6578766E-20
 -1.0285000E-03   -3.4714664E-19
 -1.0280000E-03   -8.1495943E-19
 -1.0275000E-03   -1.2827735E-18
 -1.0270000E-03   -1.8758986E-18
 -1.0265000E-03   -2.5094468E-18
 -1.0260000E-03   -2.8115335E-18
 -1.0255000E-03   -2.9923565E-18
 -1.0250000E-03   -3.1812657E-18
 -1.0245000E-03   -3.3459232E-18
 -1.0240000E-03   -3.1386938E-18
 -1.0235000E-03   -2.4868172E-18
 -1.0230000E-03   -1.3983779E-18
 -1.0225000E-03   -3.4833982E-19
 -1.0220000E-03    8.9976964E-19
 -1.0215000E-03    2.2691483E-18
 -1.0210000E-03    3.5415118E-18
 -1.0205000E-03    4.3288032E-18
 -1.0200000E-03    4.6310244E-18
 -1.0195000E-03    4.4158379E-18
 -1.0190000E-03    2.7777838E-18
 -1.0185000E-03    4.6063434E-19
 -1.0180000E-03   -2.0828819E-18
 -1.0174999E-03   -4.4485430E-18
 -1.0169999E-03   -6.7980312E-18
 -1.0165001E-03   -8.4239586E-18
 -1.0160001E-03   -9.1767583E-18
 -1.0155000E-03   -9.6385095E-18
 -1.0150000E-03   -9.6475283E-18
 -1.0145000E-03   -7.8132858E-18
 -1.0140000E-03   -3.8447421E-18
 -1.0135000E-03    3.0342120E-18
 -1.0130000E-03    1.0753949E-17
 -1.0125000E-03    1.7503554E-17
 -1.0120000E-03    2.3541737E-17
 -1.0115000E-03    3.0291361E-17
 -1.0110000E-03    3.6232532E-17
 -1.0105000E-03    4.0136415E-17
 -1.0100000E-03    3.9965721E-17
 -1.0095000E-03    3.5073666E-17
 -1.0090000E-03    2.6495081E-17
 -1.0085000E-03    1.5846840E-17
 -1.0080000E-03    3.3876522E-18
 -1.0075000E-03   -7.9073975E-18
 -1.0070000E-03   -2.0237255E-17
 -1.0065000E-03   -2.9074651E-17
 -1.0060000E-03   -3.5325006E-17
 -1.0055000E-03   -4.0411174E-17
 -1.0050000E-03   -4.2651547E-17
 -1.0045000E-03   -4.5053587E-17
 -1.0040000E-03   -3.6428382E-17
 -1.0035000E-03   -2.6380272E-17
 -1.0030000E-03   -1.1158011E-17
 -1.0025000E-03    3.2881701E-18
 -1.0019999E-03    1.5147325E-17
 -1.0014999E-03    2.7523884E-17
 -1.0010001E-03    3.6796038E-17
 -1.0005001E-03    4.6068213E-17
 -1.0000000E-03    5.9220937E-17
 -9.9950004E-04    5.6851475E-17
 -9.9900004E-04    4.6332811E-17
 -9.9850004E-04    2.5077860E-17
 -9.9800003E-04   -4.3263105E-18
 -9.9750003E-04   -5.6237588E-17
 -9.9700002E-04   -1.2522343E-16
 -9.9650002E-04   -1.8696581E-16
 -9.9600002E-04   -2.4094728E-16
 -9.9550001E-04   -2.9285923E-16
 -9.9500001E-04   -3.3442311E-16
 -9.9450001E-04   -3.7495210E-16
 -9.9400000E-04   -4.0616781E-16
 -9.9350000E-04   -3.8978206E-16
 -9.9299999E-04   -3.5037161E-16
 -9.9249999E-04   -2.7888160E-16
 -9.9199999E-04   -1.6418783E-16
 -9.9149998E-04   -3.7593288E-17
 -9.9099998E-04    9.1071421E-17
 -9.9049998E-04    2.4974597E-16
 -9.8999997E-04    4.0635111E-16
 -9.8949997E-04    5.5571291E-16
 -9.8899996E-04    6.8023924E-16
 -9.8849996E-04    7.7475605E-16
 -9.8799996E-04    8.3098443E-16
 -9.8749995E-04    8.6858544E-16
 -9.8699995E-04    8.5185844E-16
 -9.8649994E-04    7.8778807E-16
 -9.8600006E-04    6.6162829E-16
 -9.8550005E-04    4.3923050E-16
 -9.8500005E-04    1.6095219E-16
 -9.8450005E-04   -1.5044140E-16
 -9.8400004E-04   -5.1771548E-16
 -9.8350004E-04   -8.6222469E-16
 -9.8300003E-04   -1.1674116E-15
 -9.8250003E-04   -1.4105098E-15
 -9.8200003E-04   -1.5294307E-15
 -9.8150002E-04   -1.5448701E-15
 -9.8100002E-04   -1.4257831E-15
 -9.8050002E-04   -1.1323295E-15
 -9.8000001E-04   -6.4433007E-16
 -9.7950001E-04   -2.0768955E-17
 -9.7900000E-04    6.9799676E-16
 -9.7850000E-04    1.6154476E-15
 -9.7800000E-04    2.5825706E-15
 -9.7749999E-04    3.4586325E-15
 -9.7699999E-04    4.2933038E-15
 -9.7649998E-04    4.9955204E-15
 -9.7599998E-04    5.4618010E-15
 -9.7549998E-04    5.6673086E-15
 -9.7499997E-04    5.5168395E-15
 -9.7450003E-04    5.0538560E-15
 -9.7400002E-04    4.1086485E-15
 -9.7350002E-04    2.7888371E-15
 -9.7300002E-04    1.3407052E-15
 -9.7250001E-04   -1.7365778E-16
 -9.7200001E-04   -1.7625299E-15
 -9.7150001E-04   -3.2106714E-15
 -9.7100000E-04   -4.5180801E-15
 -9.7050000E-04   -5.5688562E-15
 -9.6999999E-04   -6.2677965E-15
 -9.6949999E-04   -6.5114184E-15
 -9.6899999E-04   -6.1631261E-15
 -9.6849998E-04   -5.4712730E-15
 -9.6799998E-04   -4.4487932E-15
 -9.6749997E-04   -3.1137962E-15
 -9.6700003E-04   -1.5842490E-15
 -9.6650003E-04   -5.4695118E-17
 -9.6600002E-04    1.5410920E-15
 -9.6550002E-04    2.9381991E-15
 -9.6500001E-04    4.0455619E-15
 -9.6450001E-04    4.9873546E-15
 -9.6400001E-04    5.7387393E-15
 -9.6350000E-04    6.0761951E-15
 -9.6300000E-04    5.8714058E-15
 -9.6249999E-04    5.1616202E-15
 -9.6199999E-04    3.6938260E-15
 -9.6149999E-04    1.5865086E-15
 -9.6099998E-04   -1.2079338E-15
 -9.6049998E-04   -4.2672982E-15
 -9.5999998E-04   -7.6081397E-15
 -9.5949997E-04   -1.0766862E-14
 -9.5900003E-04   -1.3644119E-14
 -9.5850002E-04   -1.5809426E-14
 -9.5800002E-04   -1.6699842E-14
 -9.5750001E-04   -1.6191186E-14
 -9.5700001E-04   -1.4068212E-14
 -9.5650001E-04   -1.0637223E-14
 -9.5600000E-04   -6.0430854E-15
 -9.5550000E-04   -2.3406096E-16
 -9.5500000E-04    6.4688037E-15
 -9.5449999E-04    1.2999912E-14
 -9.5399999E-04    1.9617961E-14
 -9.5349998E-04    2.5693787E-14
 -9.5299998E-04    3.0776204E-14
 -9.5249998E-04    3.4368487E-14
 -9.5199997E-04    3.6338184E-14
 -9.5150003E-04    3.5633917E-14
 -9.5100002E-04    3.2148055E-14
 -9.5050002E-04    2.5913711E-14
 -9.5000002E-04    1.7021940E-14
 -9.4950001E-04    5.7045416E-15
 -9.4900001E-04   -8.2620034E-15
 -9.4850000E-04   -2.2601111E-14
 -9.4800000E-04   -3.6352476E-14
 -9.4750000E-04   -4.9197368E-14
 -9.4699999E-04   -6.0438315E-14
 -9.4649999E-04   -6.9017749E-14
 -9.4599999E-04   -7.4542403E-14
 -9.4549998E-04   -7.6656312E-14
 -9.4499998E-04   -7.4465384E-14
 -9.4449997E-04   -6.7837154E-14
 -9.4400003E-04   -5.6738499E-14
 -9.4350002E-04   -4.1533674E-14
 -9.4300002E-04   -2.2818722E-14
 -9.4250002E-04    2.0108112E-16
 -9.4200001E-04    2.5406440E-14
 -9.4150001E-04    5.2664894E-14
 -9.4100001E-04    7.9277662E-14
 -9.4050000E-04    1.0267840E-13
 -9.4000000E-04    1.2269015E-13
 -9.3949999E-04    1.3710563E-13
 -9.3899999E-04    1.4602417E-13
 -9.3849999E-04    1.4861791E-13
 -9.3799998E-04    1.4273443E-13
 -9.3749998E-04    1.2870484E-13
 -9.3699998E-04    1.0626424E-13
 -9.3649997E-04    7.7333247E-14
 -9.3600003E-04    4.2905265E-14
 -9.3550002E-04    3.6425839E-15
 -9.3500002E-04   -3.6746007E-14
 -9.3450001E-04   -7.4319965E-14
 -9.3400001E-04   -1.0601622E-13
 -9.3350001E-04   -1.3630512E-13
 -9.3300000E-04   -1.5798440E-13
 -9.3250000E-04   -1.6946453E-13
 -9.3200000E-04   -1.6783147E-13
 -9.3149999E-04   -1.5427733E-13
 -9.3099999E-04   -1.2681525E-13
 -9.3049998E-04   -8.9153945E-14
 -9.2999998E-04   -4.2485512E-14
 -9.2949998E-04    9.0839278E-15
 -9.2899997E-04    6.3832444E-14
 -9.2850003E-04    1.1712408E-13
 -9.2800002E-04    1.6210424E-13
 -9.2750002E-04    1.9926956E-13
 -9.2700002E-04    2.2563977E-13
 -9.2650001E-04    2.3704245E-13
 -9.2600001E-04    2.2751703E-13
 -9.2550000E-04    1.9388453E-13
 -9.2500000E-04    1.3614491E-13
 -9.2450000E-04    5.3768320E-14
 -9.2399999E-04   -5.0861056E-14
 -9.2349999E-04   -1.7456427E-13
 -9.2299999E-04   -3.0330109E-13
 -9.2249998E-04   -4.2991885E-13
 -9.2199998E-04   -5.3825797E-13
 -9.2149997E-04   -6.2862562E-13
 -9.2100003E-04   -6.8270048E-13
 -9.2050002E-04   -6.9385974E-13
 -9.2000002E-04   -6.5548050E-13
 -9.1950002E-04   -5.6332413E-13
 -9.1900001E-04   -4.1500630E-13
 -9.1850001E-04   -2.2695145E-13
 -9.1800001E-04    2.9597328E-15
 -9.1750000E-04    2.5353436E-13
 -9.1700000E-04    5.0967255E-13
 -9.1649999E-04    7.4832702E-13
 -9.1599999E-04    9.4645027E-13
 -9.1549999E-04    1.0928995E-12
 -9.1499998E-04    1.1698098E-12
 -9.1449998E-04    1.1691008E-12
 -9.1399997E-04    1.0841501E-12
 -9.1349997E-04    9.1760638E-13
 -9.1300003E-04    6.7582750E-13
 -9.1250002E-04    3.8159566E-13
 -9.1200002E-04    5.7693203E-14
 -9.1150001E-04   -2.8051514E-13
 -9.1100001E-04   -6.0812764E-13
 -9.1050001E-04   -8.9706356E-13
 -9.1000000E-04   -1.1361966E-12
 -9.0950000E-04   -1.2933397E-12
 -9.0899999E-04   -1.3703472E-12
 -9.0849999E-04   -1.3689408E-12
 -9.0799999E-04   -1.2716361E-12
 -9.0749998E-04   -1.0969767E-12
 -9.0699998E-04   -8.4655172E-13
 -9.0649998E-04   -5.3254731E-13
 -9.0599997E-04   -1.7721594E-13
 -9.0550003E-04    1.8076545E-13
 -9.0500002E-04    5.2232312E-13
 -9.0450002E-04    8.3368159E-13
 -9.0400001E-04    1.0984161E-12
 -9.0350001E-04    1.2888432E-12
 -9.0300001E-04    1.3803258E-12
 -9.0250000E-04    1.3769697E-12
 -9.0200000E-04    1.2612906E-12
 -9.0150000E-04    1.0634879E-12
 -9.0099999E-04    7.9574753E-13
 -9.0049999E-04    4.4323410E-13
 -8.9999998E-04    4.4094916E-14
 -8.9949998E-04   -3.7729815E-13
 -8.9899998E-04   -7.9763301E-13
 -8.9849997E-04   -1.1920074E-12
 -8.9800003E-04   -1.5206845E-12
 -8.9750002E-04   -1.7720075E-12
 -8.9700002E-04   -1.9073655E-12
 -8.9650002E-04   -1.9007304E-12
 -8.9600001E-04   -1.7642876E-12
 -8.9550001E-04   -1.5059842E-12
 -8.9500000E-04   -1.1025075E-12
 -8.9450000E-04   -5.3372421E-13
 -8.9400000E-04    1.4208543E-13
 -8.9349999E-04    9.0584777E-13
 -8.9299999E-04    1.6918646E-12
 -8.9249999E-04    2.4487426E-12
 -8.9199998E-04    3.1134323E-12
 -8.9149998E-04    3.6366595E-12
 -8.9099997E-04    3.9749783E-12
 -8.9050003E-04    4.0930219E-12
 -8.9000002E-04    3.9633722E-12
 -8.8950002E-04    3.5746365E-12
 -8.8900002E-04    2.9776780E-12
 -8.8850001E-04    2.2138229E-12
 -8.8800001E-04    1.1982989E-12
 -8.8750001E-04    6.4092557E-14
 -8.8700000E-04   -1.1411121E-12
 -8.8650000E-04   -2.3129396E-12
 -8.8599999E-04   -3.4233083E-12
 -8.8549999E-04   -4.4261231E-12
 -8.8499999E-04   -5.2392608E-12
 -8.8449998E-04   -5.8126533E-12
 -8.8399998E-04   -6.0946409E-12
 -8.8349998E-04   -6.0926411E-12
 -8.8299997E-04   -5.7379422E-12
 -8.8250003E-04   -5.1071365E-12
 -8.8200002E-04   -4.1586990E-12
 -8.8150002E-04   -3.0158133E-12
 -8.8100001E-04   -1.7266944E-12
 -8.8050001E-04   -3.1571414E-13
 -8.8000001E-04    1.1111624E-12
 -8.7950000E-04    2.4935349E-12
 -8.7900000E-04    3.7593466E-12
 -8.7850000E-04    4.7782603E-12
 -8.7799999E-04    5.4623242E-12
 -8.7749999E-04    5.7511383E-12
 -8.7699998E-04    5.6224491E-12
 -8.7649998E-04    4.9554566E-12
 -8.7599998E-04    3.8296337E-12
 -8.7549997E-04    2.3975693E-12
 -8.7500003E-04    8.3119010E-13
 -8.7450002E-04   -8.5758261E-13
 -8.7400002E-04   -2.6284812E-12
 -8.7350002E-04   -4.2923590E-12
 -8.7300001E-04   -5.6341065E-12
 -8.7250001E-04   -6.7194193E-12
 -8.7200000E-04   -7.3215314E-12
 -8.7150000E-04   -7.3238828E-12
 -8.7100000E-04   -6.6734877E-12
 -8.7049999E-04   -5.5271733E-12
 -8.6999999E-04   -3.8446720E-12
 -8.6949999E-04   -1.7743347E-12
 -8.6899998E-04    3.9985579E-13
 -8.6849998E-04    2.6810765E-12
 -8.6799997E-04    5.0248213E-12
 -8.6750003E-04    7.0496170E-12
 -8.6700002E-04    8.7883104E-12
 -8.6650002E-04    1.0035330E-11
 -8.6600002E-04    1.0799151E-11
 -8.6550001E-04    1.1122159E-11
 -8.6500001E-04    1.0839044E-11
 -8.6450001E-04    9.9921920E-12
 -8.6400000E-04    8.5858395E-12
 -8.6350000E-04    6.2554684E-12
 -8.6299999E-04    3.4037410E-12
 -8.6249999E-04   -3.5039392E-14
 -8.6199999E-04   -3.9146412E-12
 -8.6149998E-04   -8.1619477E-12
 -8.6099998E-04   -1.2207928E-11
 -8.6049997E-04   -1.5609649E-11
 -8.5999997E-04   -1.8299289E-11
 -8.5950003E-04   -2.0124258E-11
 -8.5900002E-04   -2.0558968E-11
 -8.5850002E-04   -1.9645802E-11
 -8.5800001E-04   -1.7647548E-11
 -8.5750001E-04   -1.4555726E-11
 -8.5700001E-04   -1.0370337E-11
 -8.5650000E-04   -5.3796030E-12
 -8.5600000E-04   -8.7915400E-14
 -8.5549999E-04    5.7373164E-12
 -8.5499999E-04    1.1842301E-11
 -8.5449999E-04    1.7421712E-11
 -8.5399998E-04    2.2814623E-11
 -8.5349998E-04    2.6791848E-11
 -8.5299998E-04    2.9209270E-11
 -8.5249997E-04    2.9871907E-11
 -8.5200003E-04    2.8635648E-11
 -8.5150002E-04    2.5500485E-11
 -8.5100002E-04    2.0576620E-11
 -8.5050002E-04    1.3974261E-11
 -8.5000001E-04    6.2401811E-12
 -8.4950001E-04   -2.3877898E-12
 -8.4900000E-04   -1.1172600E-11
 -8.4850000E-04   -1.8914724E-11
 -8.4800000E-04   -2.5563296E-11
 -8.4749999E-04   -3.0312981E-11
 -8.4699999E-04   -3.3468943E-11
 -8.4649998E-04   -3.4420831E-11
 -8.4599998E-04   -3.2812593E-11
 -8.4549998E-04   -2.8762910E-11
 -8.4499997E-04   -2.2941475E-11
 -8.4450003E-04   -1.5017682E-11
 -8.4400002E-04   -5.9112979E-12
 -8.4350002E-04    4.4571382E-12
 -8.4300002E-04    1.5654230E-11
 -8.4250001E-04    2.5766252E-11
 -8.4200001E-04    3.5717200E-11
 -8.4150000E-04    4.2921545E-11
 -8.4100000E-04    4.7853992E-11
 -8.4050000E-04    4.9327733E-11
 -8.3999999E-04    4.7478400E-11
 -8.3949999E-04    4.2119482E-11
 -8.3899999E-04    3.3623986E-11
 -8.3849998E-04    2.2678557E-11
 -8.3799998E-04    9.8342107E-12
 -8.3749997E-04   -4.6801621E-12
 -8.3700003E-04   -2.0049689E-11
 -8.3650002E-04   -3.4372297E-11
 -8.3600002E-04   -4.7041860E-11
 -8.3550002E-04   -5.7634505E-11
 -8.3500001E-04   -6.5226213E-11
 -8.3450001E-04   -6.9308351E-11
 -8.3400001E-04   -6.9151872E-11
 -8.3350000E-04   -6.4010776E-11
 -8.3300000E-04   -5.4563222E-11
 -8.3249999E-04   -4.1021155E-11
 -8.3199999E-04   -2.3799955E-11
 -8.3149999E-04   -3.7897311E-12
 -8.3099998E-04    1.7470908E-11
 -8.3049998E-04    3.9225363E-11
 -8.2999998E-04    5.8835103E-11
 -8.2949997E-04    7.5766067E-11
 -8.2900003E-04    8.9984312E-11
 -8.2850002E-04    9.9480743E-11
 -8.2800002E-04    1.0224627E-10
 -8.2750001E-04    9.8484318E-11
 -8.2700001E-04    8.7177647E-11
 -8.2650001E-04    6.8817910E-11
 -8.2600000E-04    4.3922227E-11
 -8.2550000E-04    1.3766406E-11
 -8.2500000E-04   -1.8905062E-11
 -8.2449999E-04   -5.0754546E-11
 -8.2399999E-04   -8.0262234E-11
 -8.2349998E-04   -1.0353923E-10
 -8.2299998E-04   -1.2040323E-10
 -8.2249998E-04   -1.2717513E-10
 -8.2199997E-04   -1.2427880E-10
 -8.2150003E-04   -1.1240082E-10
 -8.2100002E-04   -9.3200635E-11
 -8.2050002E-04   -6.7572559E-11
 -8.2000002E-04   -3.7494927E-11
 -8.1950001E-04   -4.9133878E-12
 -8.1900001E-04    2.7657380E-11
 -8.1850000E-04    5.6631255E-11
 -8.1800000E-04    7.9320418E-11
 -8.1750000E-04    9.3731641E-11
 -8.1699999E-04    9.8987506E-11
 -8.1649999E-04    9.4070723E-11
 -8.1599999E-04    7.8989745E-11
 -8.1549998E-04    5.3964933E-11
 -8.1499998E-04    1.9123441E-11
 -8.1449997E-04   -2.3415462E-11
 -8.1400003E-04   -6.9387752E-11
 -8.1350002E-04   -1.1801350E-10
 -8.1300002E-04   -1.6685127E-10
 -8.1250002E-04   -2.0861919E-10
 -8.1200001E-04   -2.4071262E-10
 -8.1150001E-04   -2.6081085E-10
 -8.1100001E-04   -2.6626054E-10
 -8.1050000E-04   -2.5546795E-10
 -8.1000000E-04   -2.2882297E-10
 -8.0949999E-04   -1.8407066E-10
 -8.0899999E-04   -1.1843046E-10
 -8.0849999E-04   -3.8480660E-11
 -8.0799998E-04    5.1709737E-11
 -8.0749998E-04    1.4403652E-10
 -8.0699997E-04    2.3120936E-10
 -8.0649997E-04    3.0712460E-10
 -8.0600003E-04    3.6583131E-10
 -8.0550002E-04    4.0337902E-10
 -8.0500002E-04    4.1610565E-10
 -8.0450001E-04    4.0411277E-10
 -8.0400001E-04    3.6553546E-10
 -8.0350001E-04    3.0084837E-10
 -8.0300000E-04    2.1249290E-10
 -8.0250000E-04    1.1165886E-10
 -8.0200000E-04    5.6026655E-12
 -8.0149999E-04   -1.0401412E-10
 -8.0099999E-04   -2.1173220E-10
 -8.0049998E-04   -3.0924391E-10
 -7.9999998E-04   -3.8961068E-10
 -7.9949998E-04   -4.4907278E-10
 -7.9899997E-04   -4.8320514E-10
 -7.9850003E-04   -4.8976967E-10
 -7.9800002E-04   -4.6859688E-10
 -7.9750002E-04   -4.2212811E-10
 -7.9700002E-04   -3.5192313E-10
 -7.9650001E-04   -2.6069458E-10
 -7.9600001E-04   -1.5685185E-10
 -7.9550000E-04   -4.6091599E-11
 -7.9500000E-04    6.4668826E-11
 -7.9450000E-04    1.7329312E-10
 -7.9399999E-04    2.7277913E-10
 -7.9349999E-04    3.5916800E-10
 -7.9299998E-04    4.3073881E-10
 -7.9249998E-04    4.8447368E-10
 -7.9199998E-04    5.2267846E-10
 -7.9149997E-04    5.4474253E-10
 -7.9100003E-04    5.4795335E-10
 -7.9050002E-04    5.4031318E-10
 -7.9000002E-04    5.2317839E-10
 -7.8950002E-04    4.8217175E-10
 -7.8900001E-04    4.2590598E-10
 -7.8850001E-04    3.5607658E-10
 -7.8800000E-04    2.7970265E-10
 -7.8750000E-04    1.9013383E-10
 -7.8700000E-04    9.8699958E-11
 -7.8649999E-04    2.6545109E-12
 -7.8599999E-04   -8.9864435E-11
 -7.8549999E-04   -1.7465211E-10
 -7.8499998E-04   -2.5170849E-10
 -7.8449998E-04   -3.1804950E-10
 -7.8399997E-04   -3.6919920E-10
 -7.8350003E-04   -3.9389988E-10
 -7.8300002E-04   -3.9499987E-10
 -7.8250002E-04   -3.7019338E-10
 -7.8200002E-04   -3.1269870E-10
 -7.8150001E-04   -2.3119653E-10
 -7.8100001E-04   -1.3361305E-10
 -7.8050001E-04   -1.3209050E-11
 -7.8000000E-04    1.2008017E-10
 -7.7950000E-04    2.5391184E-10
 -7.7899999E-04    3.7078887E-10
 -7.7849999E-04    4.6854115E-10
 -7.7799999E-04    5.3428334E-10
 -7.7749998E-04    5.7344074E-10
 -7.7699998E-04    5.6810956E-10
 -7.7649998E-04    5.1856125E-10
 -7.7599997E-04    4.2221870E-10
 -7.7550003E-04    2.9257760E-10
 -7.7500002E-04    1.4052282E-10
 -7.7450002E-04   -2.4489310E-11
 -7.7400001E-04   -1.8600881E-10
 -7.7350001E-04   -3.2284261E-10
 -7.7300001E-04   -4.1356044E-10
 -7.7250000E-04   -4.5734833E-10
 -7.7200000E-04   -4.4498308E-10
 -7.7150000E-04   -3.7510831E-10
 -7.7099999E-04   -2.4189173E-10
 -7.7049999E-04   -6.0795681E-11
 -7.6999998E-04    1.6655212E-10
 -7.6949998E-04    4.3065720E-10
 -7.6899998E-04    6.9923839E-10
 -7.6849997E-04    9.4815267E-10
 -7.6800003E-04    1.1528163E-09
 -7.6750002E-04    1.2910865E-09
 -7.6700002E-04    1.3506884E-09
 -7.6650002E-04    1.3131080E-09
 -7.6600001E-04    1.1815324E-09
 -7.6550001E-04    9.5636854E-10
 -7.6500000E-04    6.5565581E-10
 -7.6450000E-04    2.9200825E-10
 -7.6400000E-04   -1.1097372E-10
 -7.6349999E-04   -5.2996091E-10
 -7.6299999E-04   -9.3850450E-10
 -7.6249999E-04   -1.3269744E-09
 -7.6199998E-04   -1.6534594E-09
 -7.6149998E-04   -1.8885267E-09
 -7.6099997E-04   -2.0413318E-09
 -7.6050003E-04   -2.0884603E-09
 -7.6000002E-04   -2.0328796E-09
 -7.5950002E-04   -1.8720463E-09
 -7.5900002E-04   -1.6010773E-09
 -7.5850001E-04   -1.2362488E-09
 -7.5800001E-04   -8.0238177E-10
 -7.5750001E-04   -3.1914330E-10
 -7.5700000E-04    1.6423139E-10
 -7.5650000E-04    6.4733541E-10
 -7.5599999E-04    1.0623512E-09
 -7.5549999E-04    1.3892049E-09
 -7.5499999E-04    1.6156891E-09
 -7.5449998E-04    1.7517051E-09
 -7.5399998E-04    1.7933193E-09
 -7.5349997E-04    1.7223564E-09
 -7.5299997E-04    1.5493957E-09
 -7.5250003E-04    1.2894121E-09
 -7.5200002E-04    9.6018637E-10
 -7.5150002E-04    5.6232863E-10
 -7.5100001E-04    1.2120269E-10
 -7.5050001E-04   -3.1178596E-10
 -7.5000001E-04   -7.2415884E-10
 -7.4950000E-04   -1.0632896E-09
 -7.4900000E-04   -1.3340610E-09
 -7.4850000E-04   -1.5530198E-09
 -7.4799999E-04   -1.6626571E-09
 -7.4749999E-04   -1.6494087E-09
 -7.4699998E-04   -1.5287370E-09
 -7.4649998E-04   -1.3055246E-09
 -7.4599998E-04   -9.7414254E-10