 -1.2000001E-03    1.0000000E-24
 -1.1995001E-03    1.0000000E-24
 -1.1990000E-03    1.0000000E-24
 -1.1985000E-03    1.0000000E-24
 -1.1980000E-03    1.0000000E-24
 -1.1975000E-03    1.0000000E-24
 -1.1970000E-03    1.0000000E-24
 -1.1965000E-03    1.0000000E-24
 -1.1960000E-03    1.0000001E-24
 -1.1955000E-03    1.0000001E-24
 -1.1950000E-03    1.0000001E-24
 -1.1945000E-03    1.0000001E-24
 -1.1940000E-03    1.0000001E-24
 -1.1935000E-03    1.0000001E-24
 -1.1930000E-03    1.0000001E-24
 -1.1925000E-03    1.0000001E-24
 -1.1920000E-03    1.0000001E-24
 -1.1915000E-03    1.0000001E-24
 -1.1910000E-03    1.0000001E-24
 -1.1905000E-03    1.0000001E-24
 -1.1900000E-03    1.0000001E-24
 -1.1895000E-03    1.0000001E-24
 -1.1890000E-03    1.0000001E-24
 -1.1885000E-03    1.0000001E-24
 -1.1880000E-03    1.0000001E-24
 -1.1875000E-03    1.0000001E-24
 -1.1870000E-03    1.0000002E-24
 -1.1865000E-03    1.0000002E-24
 -1.1860000E-03    1.0000002E-24
 -1.1854999E-03    1.0000002E-24
 -1.1849999E-03    1.0000002E-24
 -1.1845001E-03    1.0000002E-24
 -1.1840001E-03    1.0000002E-24
 -1.1835000E-03    1.0000002E-24
 -1.1830000E-03    1.0000002E-24
 -1.1825000E-03    1.0000002E-24
 -1.1820000E-03    1.0000002E-24
 -1.1815000E-03    1.0000001E-24
 -1.1810000E-03    1.0000001E-24
 -1.1805000E-03    1.0000001E-24
 -1.1800000E-03    1.0000001E-24
 -1.1795000E-03    1.0000001E-24
 -1.1790000E-03    1.0000001E-24
 -1.1785000E-03    1.0000001E-24
 -1.1780000E-03    1.0000001E-24
 -1.1775000E-03    1.0000001E-24
 -1.1770000E-03    1.0000001E-24
 -1.1765000E-03    1.0000001E-24
 -1.1760000E-03    1.0000001E-24
 -1.1755000E-03    1.0000001E-24
 -1.1750000E-03    1.0000001E-24
 -1.1745000E-03    1.0000001E-24
 -1.1740000E-03    1.0000001E-24
 -1.1735000E-03    1.0000001E-24
 -1.1730000E-03    1.0000001E-24
 -1.1725000E-03    1.0000001E-24
 -1.1720000E-03    1.0000001E-24
 -1.1715000E-03    1.0000001E-24
 -1.1710000E-03    1.0000001E-24
 -1.1704999E-03    1.0000001E-24
 -1.1699999E-03    1.0000001E-24
 -1.1695001E-03    1.0000001E-24
 -1.1690001E-03    1.0000001E-24
 -1.1685000E-03    1.0000001E-24
 -1.1680000E-03    1.0000001E-24
 -1.1675000E-03    1.0000001E-24
 -1.1670000E-03    1.0000001E-24
 -1.1665000E-03    1.0000001E-24
 -1.1660000E-03    1.0000001E-24
 -1.1655000E-03    1.0000001E-24
 -1.1650000E-03    1.0000001E-24
 -1.1645000E-03    1.0000001E-24
 -1.1640000E-03    1.0000001E-24
 -1.1635000E-03    1.0000001E-24
 -1.1630000E-03    1.0000000E-24
 -1.1625000E-03    9.9999982E-25
 -1.1620000E-03    9.9999943E-25
 -1.1615000E-03    9.9999874E-25
 -1.1610000E-03    9.9999775E-25
 -1.1605000E-03    9.9999637E-25
 -1.1600000E-03    9.9999440E-25
 -1.1595000E-03    9.9999203E-25
 -1.1590000E-03    9.9998927E-25
 -1.1585000E-03    9.9998661E-25
 -1.1580000E-03    9.9998483E-25
 -1.1575000E-03    9.9998533E-25
 -1.1570000E-03    9.9999036E-25
 -1.1565000E-03    1.0000035E-24
 -1.1560000E-03    1.0000294E-24
 -1.1555000E-03    1.0000745E-24
 -1.1549999E-03    1.0001466E-24
 -1.1544999E-03    1.0002545E-24
 -1.1540001E-03    1.0004072E-24
 -1.1535001E-03    1.0006110E-24
 -1.1530000E-03    1.0008669E-24
 -1.1525000E-03    1.0011651E-24
 -1.1520000E-03    1.0014780E-24
 -1.1515000E-03    1.0017508E-24
 -1.1510000E-03    1.0018906E-24
 -1.1505000E-03    1.0017539E-24
 -1.1500000E-03    1.0011345E-24
 -1.1495000E-03    9.9975547E-25
 -1.1490000E-03    9.9726741E-25
 -1.1485000E-03    9.9326049E-25
 -1.1480000E-03    9.8729699E-25
 -1.1475000E-03    9.7897402E-25
 -1.1470000E-03    9.6802473E-25
 -1.1465000E-03    9.5447022E-25
 -1.1460000E-03    9.3882672E-25
 -1.1455000E-03    9.2237049E-25
 -1.1450000E-03    9.0745480E-25
 -1.1445000E-03    8.9785456E-25
 -1.1440000E-03    8.9910037E-25
 -1.1435000E-03    9.1873502E-25
 -1.1430000E-03    9.6639879E-25
 -1.1425000E-03    1.0536149E-24
 -1.1420000E-03    1.1931207E-24
 -1.1415000E-03    1.3975623E-24
 -1.1410000E-03    1.6773695E-24
 -1.1405000E-03    2.0376386E-24
 -1.1399999E-03    2.4739205E-24
 -1.1394999E-03    2.9669100E-24
 -1.1390001E-03    3.4762150E-24
 -1.1385001E-03    3.9336253E-24
 -1.1380001E-03    4.2366359E-24
 -1.1375000E-03    4.2433514E-24
 -1.1370000E-03    3.7703646E-24
 -1.1365000E-03    2.5956137E-24
 -1.1360000E-03    4.6861893E-25
 -1.1355000E-03   -2.8692739E-24
 -1.1350000E-03   -7.6520612E-24
 -1.1345000E-03   -1.4041517E-23
 -1.1340000E-03   -2.2063731E-23
 -1.1335000E-03   -3.1530266E-23
 -1.1330000E-03   -4.1946893E-23
 -1.1325000E-03   -5.2416197E-23
 -1.1320000E-03   -6.1544372E-23
 -1.1315000E-03   -6.7367314E-23
 -1.1310000E-03   -6.7315950E-23
 -1.1305000E-03   -5.8245482E-23
 -1.1300000E-03   -3.6556666E-23
 -1.1295000E-03    1.5614841E-24
 -1.1290000E-03    5.9739868E-23
 -1.1285000E-03    1.4086743E-22
 -1.1280000E-03    2.4635081E-22
 -1.1275000E-03    3.7520613E-22
 -1.1270000E-03    5.2302109E-22
 -1.1265000E-03    6.8085906E-22
 -1.1260000E-03    8.3421816E-22
 -1.1255000E-03    9.6220179E-22
 -1.1250000E-03    1.0371014E-21
 -1.1244999E-03    1.0246304E-21
 -1.1239999E-03    8.8507073E-22
 -1.1235001E-03    5.7559729E-22
 -1.1230001E-03    5.4012536E-23
 -1.1225000E-03   -7.1594673E-22
 -1.1220000E-03   -1.7576936E-21
 -1.1215000E-03   -3.0734071E-21
 -1.1210000E-03   -4.6345577E-21
 -1.1205000E-03   -6.3720041E-21
 -1.1200000E-03   -8.1666581E-21
 -1.1195000E-03   -9.8420292E-21
 -1.1190000E-03   -1.1160305E-20
 -1.1185000E-03   -1.1823830E-20
 -1.1180000E-03   -1.1484005E-20
 -1.1175000E-03   -9.7595276E-21
 -1.1170000E-03   -6.2655846E-21
 -1.1165000E-03   -6.5497634E-22
 -1.1160000E-03    7.3288259E-21
 -1.1155000E-03    1.7788038E-20
 -1.1150000E-03    3.0599417E-20
 -1.1145000E-03    4.5340600E-20
 -1.1140000E-03    6.1221169E-20
 -1.1135000E-03    7.7027698E-20
 -1.1130000E-03    9.1093918E-20
 -1.1125000E-03    1.0130839E-19
 -1.1120000E-03    1.0517245E-19
 -1.1115000E-03    9.9920116E-20
 -1.1110000E-03    8.2709214E-20
 -1.1105000E-03    5.0888465E-20
 -1.1100000E-03    2.3386852E-21
 -1.1094999E-03   -6.4122091E-20
 -1.1089999E-03   -1.4829025E-19
 -1.1084999E-03   -2.4811704E-19
 -1.1080001E-03   -3.5928161E-19
 -1.1075001E-03   -4.7485213E-19
 -1.1070000E-03   -5.8509861E-19
 -1.1065000E-03   -6.7752663E-19
 -1.1060000E-03   -7.3720058E-19
 -1.1055000E-03   -7.4741657E-19
 -1.1050000E-03   -6.9076943E-19
 -1.1045000E-03   -5.5063066E-19
 -1.1040000E-03   -3.1301871E-19
 -1.1035000E-03    3.1202926E-20
 -1.1030000E-03    4.8391787E-19
 -1.1025000E-03    1.0373130E-18
 -1.1020000E-03    1.6716302E-18
 -1.1015000E-03    2.3533905E-18
 -1.1010000E-03    3.0344118E-18
 -1.1005000E-03    3.6519449E-18
 -1.1000000E-03    4.1302464E-18
 -1.0995000E-03    4.3838521E-18
 -1.0990000E-03    4.3227317E-18
 -1.0985000E-03    3.8593580E-18
 -1.0980000E-03    2.9175651E-18
 -1.0975000E-03    1.4428460E-18
 -1.0970000E-03   -5.8648124E-19
 -1.0965000E-03   -3.1480652E-18
 -1.0960000E-03   -6.1653129E-18
 -1.0955000E-03   -9.4994166E-18
 -1.0950000E-03   -1.2944965E-17
 -1.0945000E-03   -1.6230509E-17
 -1.0939999E-03   -1.9025344E-17
 -1.0934999E-03   -2.0953496E-17
 -1.0930001E-03   -2.1615512E-17
 -1.0925001E-03   -2.0618041E-17
 -1.0920000E-03   -1.7610495E-17
 -1.0915000E-03   -1.2327186E-17
 -1.0910000E-03   -4.6325129E-18
 -1.0905000E-03    5.4342085E-18
 -1.0900000E-03    1.7618401E-17
 -1.0895000E-03    3.1419139E-17
 -1.0890000E-03    4.6072375E-17
 -1.0885000E-03    6.0553426E-17
 -1.0880000E-03    7.3603087E-17
 -1.0875000E-03    8.3780664E-17
 -1.0870000E-03    8.9545431E-17
 -1.0865000E-03    8.9365940E-17
 -1.0860000E-03    8.1853843E-17
 -1.0855000E-03    6.5915998E-17
 -1.0850000E-03    4.0915596E-17
 -1.0845000E-03    6.8300812E-18
 -1.0840000E-03   -3.5608610E-17
 -1.0835000E-03   -8.4807784E-17
 -1.0830000E-03   -1.3825830E-16
 -1.0825000E-03   -1.9254532E-16
 -1.0820000E-03   -2.4343875E-16
 -1.0815000E-03   -2.8607273E-16
 -1.0810000E-03   -3.1521704E-16
 -1.0805000E-03   -3.2563673E-16
 -1.0800000E-03   -3.1252707E-16
 -1.0795000E-03   -2.7200203E-16
 -1.0790000E-03   -2.0160566E-16
 -1.0784999E-03   -1.0080703E-16
 -1.0779999E-03    2.8566206E-17
 -1.0775001E-03    1.8200499E-16
 -1.0770001E-03    3.5215559E-16
 -1.0765000E-03    5.2886080E-16
 -1.0760000E-03    6.9944222E-16
 -1.0755000E-03    8.4924460E-16
 -1.0750000E-03    9.6244892E-16
 -1.0745000E-03    1.0231341E-15
 -1.0740000E-03    1.0165473E-15
 -1.0735000E-03    9.3051546E-16
 -1.0730000E-03    7.5690541E-16
 -1.0725000E-03    4.9302341E-16
 -1.0720000E-03    1.4282453E-16
 -1.0715000E-03   -2.8219996E-16
 -1.0710000E-03   -7.6258784E-16
 -1.0705000E-03   -1.2710395E-15
 -1.0700000E-03   -1.7732095E-15
 -1.0695000E-03   -2.2292029E-15
 -1.0690000E-03   -2.5957812E-15
 -1.0685000E-03   -2.8292137E-15
 -1.0680000E-03   -2.8886600E-15
 -1.0675000E-03   -2.7398939E-15
 -1.0670000E-03   -2.3591280E-15
 -1.0665000E-03   -1.7366457E-15
 -1.0660000E-03   -8.7991900E-16
 -1.0655000E-03    1.8412842E-16
 -1.0650000E-03    1.4080301E-15
 -1.0645000E-03    2.7241399E-15
 -1.0640000E-03    4.0466580E-15
 -1.0634999E-03    5.2754241E-15
 -1.0629999E-03    6.3014669E-15
 -1.0625001E-03    7.0141456E-15
 -1.0620001E-03    7.3095725E-15
 -1.0615001E-03    7.0998535E-15
 -1.0610000E-03    6.3225436E-15
 -1.0605000E-03    4.9495917E-15
 -1.0600000E-03    2.9949937E-15
 -1.0595000E-03    5.2032779E-16
 -1.0590000E-03   -2.3626025E-15
 -1.0585000E-03   -5.4926961E-15
 -1.0580000E-03   -8.6645541E-15
 -1.0575000E-03   -1.1637807E-14
 -1.0570000E-03   -1.4150737E-14
 -1.0565000E-03   -1.5937792E-14
 -1.0560000E-03   -1.6750243E-14
 -1.0555000E-03   -1.6378812E-14
 -1.0550000E-03   -1.4676838E-14
 -1.0545000E-03   -1.1582113E-14
 -1.0540000E-03   -7.1354886E-15
 -1.0535000E-03   -1.4941266E-15
 -1.0530000E-03    5.0625499E-15
 -1.0525000E-03    1.2135974E-14
 -1.0520000E-03    1.9221915E-14
 -1.0515000E-03    2.5735048E-14
 -1.0510000E-03    3.1044493E-14
 -1.0505000E-03    3.4519344E-14
 -1.0500000E-03    3.5582197E-14
 -1.0495000E-03    3.3767555E-14
 -1.0490000E-03    2.8781160E-14
 -1.0485000E-03    2.0555314E-14
 -1.0479999E-03    9.2947416E-15
 -1.0474999E-03   -4.4927360E-15
 -1.0470001E-03   -1.9986249E-14
 -1.0465001E-03   -3.6067513E-14
 -1.0460000E-03   -5.1365660E-14
 -1.0455000E-03   -6.4333040E-14
 -1.0450000E-03   -7.3351440E-14
 -1.0445000E-03   -7.6865394E-14
 -1.0440000E-03   -7.3536148E-14
 -1.0435000E-03   -6.2406697E-14
 -1.0430000E-03   -4.3065330E-14
 -1.0425000E-03   -1.5792623E-14
 -1.0420000E-03    1.8324863E-14
 -1.0415000E-03    5.7331452E-14
 -1.0410000E-03    9.8406194E-14
 -1.0405000E-03    1.3794741E-13
 -1.0400000E-03    1.7174733E-13
 -1.0395000E-03    1.9525993E-13
 -1.0390000E-03    2.0395725E-13
 -1.0385000E-03    1.9376018E-13
 -1.0380000E-03    1.6151997E-13
 -1.0375000E-03    1.0551675E-13
 -1.0370000E-03    2.5932473E-14
 -1.0365000E-03   -7.4751274E-14
 -1.0360000E-03   -1.9148379E-13
 -1.0355000E-03   -3.1655722E-13
 -1.0350000E-03   -4.3974758E-13
 -1.0345000E-03   -5.4872171E-13
 -1.0340000E-03   -6.2972983E-13
 -1.0335000E-03   -6.6858259E-13
 -1.0329999E-03   -6.5188138E-13
 -1.0324999E-03   -5.6844552E-13
 -1.0319999E-03   -4.1084410E-13
 -1.0315001E-03   -1.7691420E-13
 -1.0310001E-03    1.2887854E-13
 -1.0305000E-03    4.9439662E-13
 -1.0300000E-03    8.9926992E-13
 -1.0295000E-03    1.3149722E-12
 -1.0290000E-03    1.7056643E-12
 -1.0285000E-03    2.0298901E-12
 -1.0280000E-03    2.2431501E-12
 -1.0275000E-03    2.3013024E-12
 -1.0270000E-03    2.1646543E-12
 -1.0265000E-03    1.8025141E-12
 -1.0260000E-03    1.1978855E-12
 -1.0255000E-03    3.5190657E-13
 -1.0250000E-03   -7.1242518E-13
 -1.0245000E-03   -1.9477245E-12
 -1.0240000E-03   -3.2813626E-12
 -1.0235000E-03   -4.6167020E-12
 -1.0230000E-03   -5.8367365E-12
 -1.0225000E-03   -6.8102923E-12
 -1.0220000E-03   -7.4007510E-12
 -1.0215000E-03   -7.4770138E-12
 -1.0210000E-03   -6.9261701E-12
 -1.0205000E-03   -5.6670818E-12
 -1.0200000E-03   -3.6638479E-12
 -1.0195000E-03   -9.3792671E-13
 -1.0190000E-03    2.4224119E-12
 -1.0185000E-03    6.2566697E-12
 -1.0180000E-03    1.0331983E-11
 -1.0174999E-03    1.4349286E-11
 -1.0169999E-03    1.7956431E-11
 -1.0165001E-03    2.0768425E-11
 -1.0160001E-03    2.2394329E-11
 -1.0155000E-03    2.2469729E-11
 -1.0150000E-03    2.0692930E-11
 -1.0145000E-03    1.6862473E-11
 -1.0140000E-03    1.0912871E-11
 -1.0135000E-03    2.9451881E-12
 -1.0130000E-03   -6.7511305E-12
 -1.0125000E-03   -1.7688640E-11
 -1.0120000E-03   -2.9187500E-11
 -1.0115000E-03   -4.0398476E-11
 -1.0110000E-03   -5.0344479E-11
 -1.0105000E-03   -5.7980242E-11
 -1.0100000E-03   -6.2268184E-11
 -1.0095000E-03   -6.2266782E-11
 -1.0090000E-03   -5.7226005E-11
 -1.0085000E-03   -4.6682862E-11
 -1.0080000E-03   -3.0548987E-11
 -1.0075000E-03   -9.1814308E-12
 -1.0070000E-03    1.6572127E-11
 -1.0065000E-03    4.5361780E-11
 -1.0060000E-03    7.5363972E-11
 -1.0055000E-03    1.0435431E-10
 -1.0050000E-03    1.2982573E-10
 -1.0045000E-03    1.4914930E-10
 -1.0040000E-03    1.5977088E-10
 -1.0035000E-03    1.5943304E-10
 -1.0030000E-03    1.4640734E-10
 -1.0025000E-03    1.1971940E-10
 -1.0019999E-03    7.9346592E-11
 -1.0014999E-03    2.6367844E-11
 -1.0010001E-03   -3.6954342E-11
 -1.0005001E-03   -1.0717686E-10
 -1.0000000E-03   -1.7977637E-10
 -9.9950004E-04   -2.4935359E-10
 -9.9900004E-04   -3.0993963E-10
 -9.9850004E-04   -3.5539471E-10
 -9.9800003E-04   -3.7987916E-10
 -9.9750003E-04   -3.7836900E-10
 -9.9700002E-04   -3.4717951E-10
 -9.9650002E-04   -2.8445526E-10
 -9.9600002E-04   -1.9058140E-10
 -9.9550001E-04   -6.8471208E-11
 -9.9500001E-04    7.6310847E-11
 -9.9450001E-04    2.3562363E-10
 -9.9400000E-04    3.9904252E-10
 -9.9350000E-04    5.5437765E-10
 -9.9299999E-04    6.8840489E-10
 -9.9249999E-04    7.8777956E-10
 -9.9199999E-04    8.4008223E-10
 -9.9149998E-04    8.3493007E-10
 -9.9099998E-04    7.6507101E-10
 -9.9049998E-04    6.2737099E-10
 -9.8999997E-04    4.2359949E-10
 -9.8949997E-04    1.6092415E-10
 -9.8899996E-04   -1.4796257E-10
 -9.8849996E-04   -4.8514176E-10
 -9.8799996E-04   -8.2822083E-10
 -9.8749995E-04   -1.1515369E-09
 -9.8699995E-04   -1.4277693E-09
 -9.8649994E-04   -1.6298833E-09
 -9.8600006E-04   -1.7332863E-09
 -9.8550005E-04   -1.7180530E-09
 -9.8500005E-04   -1.5710468E-09
 -9.8450005E-04   -1.2877566E-09
 -9.8400004E-04   -8.7366731E-10
 -9.8350004E-04   -3.4500300E-10
 -9.8300003E-04    2.7129329E-10
 -9.8250003E-04    9.3842545E-10
 -9.8200003E-04    1.6114848E-09
 -9.8150002E-04    2.2400259E-09
 -9.8100002E-04    2.7713636E-09
 -9.8050002E-04    3.1544132E-09
 -9.8000001E-04    3.3438257E-09
 -9.7950001E-04    3.3041236E-09
 -9.7900000E-04    3.0135103E-09
 -9.7850000E-04    2.4670159E-09
 -9.7800000E-04    1.6786614E-09
 -9.7749999E-04    6.8236816E-10
 -9.7699999E-04   -4.6858950E-10
 -9.7649998E-04   -1.7036961E-09
 -9.7599998E-04   -2.9388612E-09
 -9.7549998E-04   -4.0815102E-09
 -9.7499997E-04   -5.0368407E-09
 -9.7450003E-04   -5.7148668E-09
 -9.7400002E-04   -6.0377783E-09
 -9.7350002E-04   -5.9470660E-09
 -9.7300002E-04   -5.4098312E-09
 -9.7250001E-04   -4.4237165E-09
 -9.7200001E-04   -3.0199341E-09
 -9.7150001E-04   -1.2639876E-09
 -9.7100000E-04    7.4618450E-10
 -9.7050000E-04    2.8847262E-09
 -9.6999999E-04    5.0049307E-09
 -9.6949999E-04    6.9485280E-09
 -9.6899999E-04    8.5566656E-09
 -9.6849998E-04    9.6818722E-09
 -9.6799998E-04    1.0200162E-08
 -9.6749997E-04    1.0022347E-08
 -9.6700003E-04    9.1036298E-09
 -9.6650003E-04    7.4505708E-09
 -9.6600002E-04    5.1247078E-09
 -9.6550002E-04    2.2422686E-09
 -9.6500001E-04   -1.0302994E-09
 -9.6450001E-04   -4.4849537E-09
 -9.6400001E-04   -7.8844868E-09
 -9.6350000E-04   -1.0978085E-08
 -9.6300000E-04   -1.3519037E-08
 -9.6249999E-04   -1.5283403E-08
 -9.6199999E-04   -1.6088260E-08
 -9.6149999E-04   -1.5808100E-08
 -9.6099998E-04   -1.4388010E-08
 -9.6049998E-04   -1.1852398E-08
 -9.5999998E-04   -8.3083274E-09
 -9.5949997E-04   -3.9428492E-09
 -9.5900003E-04    9.8582098E-10
 -9.5850002E-04    6.1629746E-09
 -9.5800002E-04    1.1237167E-08
 -9.5750001E-04    1.5843829E-08
 -9.5700001E-04    1.9631162E-08
 -9.5650001E-04    2.2286448E-08
 -9.5600000E-04    2.3560844E-08
 -9.5550000E-04    2.3290639E-08
 -9.5500000E-04    2.1413264E-08
 -9.5449999E-04    1.7976545E-08
 -9.5399999E-04    1.3140223E-08
 -9.5349998E-04    7.1693149E-09
 -9.5299998E-04    4.1945580E-10
 -9.5249998E-04   -6.6849322E-09
 -9.5199997E-04   -1.3678289E-08
 -9.5150003E-04   -2.0085466E-08
 -9.5100002E-04   -2.5454936E-08
 -9.5050002E-04   -2.9391202E-08
 -9.5000002E-04   -3.1583944E-08
 -9.4950001E-04   -3.1831654E-08
 -9.4900001E-04   -3.0057851E-08
 -9.4850000E-04   -2.6318586E-08
 -9.4800000E-04   -2.0800512E-08
 -9.4750000E-04   -1.3809598E-08
 -9.4699999E-04   -5.7513390E-09
 -9.4649999E-04    2.8961376E-09
 -9.4599999E-04    1.1613946E-08
 -9.4549998E-04    1.9876877E-08
 -9.4499998E-04    2.7187740E-08
 -9.4449997E-04    3.3109021E-08
 -9.4400003E-04    3.7289503E-08
 -9.4350002E-04    3.9483961E-08
 -9.4300002E-04    3.9564700E-08
 -9.4250002E-04    3.7524472E-08
 -9.4200001E-04    3.3470965E-08
 -9.4150001E-04    2.7613925E-08
 -9.4100001E-04    2.0246585E-08
 -9.4050000E-04    1.1723396E-08
 -9.4000000E-04    2.4364717E-09
 -9.3949999E-04   -7.2070239E-09
 -9.3899999E-04   -1.6804497E-08
 -9.3849999E-04   -2.5973062E-08
 -9.3799998E-04   -3.4359353E-08
 -9.3749998E-04   -4.1643986E-08
 -9.3699998E-04   -4.7541402E-08
 -9.3649997E-04   -5.1796597E-08
 -9.3600003E-04   -5.4180706E-08
 -9.3550002E-04   -5.4487863E-08
 -9.3500002E-04   -5.2535498E-08
 -9.3450001E-04   -4.8170133E-08
 -9.3400001E-04   -4.1279900E-08
 -9.3350001E-04   -3.1814078E-08
 -9.3300000E-04   -1.9808837E-08
 -9.3250000E-04   -5.4170992E-09
 -9.3200000E-04    1.1060700E-08
 -9.3149999E-04    2.9149179E-08
 -9.3099999E-04    4.8178659E-08
 -9.3049998E-04    6.7278890E-08
 -9.2999998E-04    8.5390312E-08
 -9.2949998E-04    1.0129635E-07
 -9.2899997E-04    1.1367869E-07
 -9.2850003E-04    1.2119528E-07
 -9.2800002E-04    1.2257853E-07
 -9.2750002E-04    1.1674843E-07
 -9.2700002E-04    1.0293319E-07
 -9.2650001E-04    8.0787323E-08
 -9.2600001E-04    5.0496467E-08
 -9.2550000E-04    1.2856613E-08
 -9.2500000E-04   -3.0683175E-08
 -9.2450000E-04   -7.8024712E-08
 -9.2399999E-04   -1.2647831E-07
 -9.2349999E-04   -1.7287752E-07
 -9.2299999E-04   -2.1374993E-07
 -9.2249998E-04   -2.4553771E-07
 -9.2199998E-04   -2.6485674E-07
 -9.2149997E-04   -2.6877785E-07
 -9.2100003E-04   -2.5511031E-07
 -9.2050002E-04   -2.2266403E-07
 -9.2000002E-04   -1.7146698E-07
 -9.1950002E-04   -1.0291414E-07
 -9.1900001E-04   -1.9827590E-08
 -9.1850001E-04    7.3587337E-08
 -9.1800001E-04    1.7189869E-07
 -9.1750000E-04    2.6871743E-07
 -9.1700000E-04    3.5707083E-07
 -9.1649999E-04    4.2986159E-07
 -9.1599999E-04    4.8038521E-07
 -9.1549999E-04    5.0287071E-07
 -9.1499998E-04    4.9300519E-07
 -9.1449998E-04    4.4839823E-07
 -9.1399997E-04    3.6894551E-07
 -9.1349997E-04    2.5705236E-07
 -9.1300003E-04    1.1768761E-07
 -9.1250002E-04   -4.1752394E-08
 -9.1200002E-04   -2.1177547E-07
 -9.1150001E-04   -3.8131290E-07
 -9.1100001E-04   -5.3840182E-07
 -9.1050001E-04   -6.7099211E-07
 -9.1000000E-04   -7.6782538E-07
 -9.0950000E-04   -8.1932541E-07
 -9.0899999E-04   -8.1843069E-07
 -9.0849999E-04   -7.6130334E-07
 -9.0799999E-04   -6.4784899E-07
 -9.0749998E-04   -4.8199541E-07
 -9.0699998E-04   -2.7169096E-07
 -9.0649998E-04   -2.8602830E-08
 -9.0599997E-04    2.3248097E-07
 -9.0550003E-04    4.9452160E-07
 -9.0500002E-04    7.3932239E-07
 -9.0450002E-04    9.4877589E-07
 -9.0400001E-04    1.1061818E-06
 -9.0350001E-04    1.1975378E-06
 -9.0300001E-04    1.2127078E-06
 -9.0250000E-04    1.1463691E-06
 -9.0200000E-04    9.9865758E-07
 -9.0150000E-04    7.7544678E-07
 -9.0099999E-04    4.8821795E-07
 -9.0049999E-04    1.5351361E-07
 -8.9999998E-04   -2.0800572E-07
 -8.9949998E-04   -5.7284956E-07
 -8.9899998E-04   -9.1624901E-07
 -8.9849997E-04   -1.2138668E-06
 -8.9800003E-04   -1.4435452E-06
 -8.9750002E-04   -1.5869632E-06
 -8.9700002E-04   -1.6310739E-06
 -8.9650002E-04   -1.5692108E-06
 -8.9600001E-04   -1.4017659E-06
 -8.9550001E-04   -1.1363784E-06
 -8.9500000E-04   -7.8760502E-07
 -8.9450000E-04   -3.7608231E-07
 -8.9400000E-04    7.2769772E-08
 -8.9349999E-04    5.3041504E-07
 -8.9299999E-04    9.6712427E-07
 -8.9249999E-04    1.3540148E-06
 -8.9199998E-04    1.6650564E-06
 -8.9149998E-04    1.8788954E-06
 -8.9099997E-04    1.9803565E-06
 -8.9050003E-04    1.9615104E-06
 -8.9000002E-04    1.8222271E-06
 -8.8950002E-04    1.5701703E-06
 -8.8900002E-04    1.2202378E-06
 -8.8850001E-04    7.9349354E-07
 -8.8800001E-04    3.1567708E-07
 -8.8750001E-04   -1.8459096E-07
 -8.8700000E-04   -6.7776386E-07
 -8.8650000E-04   -1.1353314E-06
 -8.8599999E-04   -1.5316396E-06
 -8.8549999E-04   -1.8454298E-06
 -8.8499999E-04   -2.0609898E-06
 -8.8449998E-04   -2.1688422E-06
 -8.8399998E-04   -2.1659393E-06
 -8.8349998E-04   -2.0553805E-06
 -8.8299997E-04   -1.8457075E-06
 -8.8250003E-04   -1.5498691E-06
 -8.8200002E-04   -1.1839786E-06
 -8.8150002E-04   -7.6599815E-07
 -8.8100001E-04   -3.1448417E-07
 -8.8050001E-04    1.5248216E-07
 -8.8000001E-04    6.1808515E-07
 -8.7950000E-04    1.0672265E-06
 -8.7900000E-04    1.4866257E-06
 -8.7850000E-04    1.8646006E-06
 -8.7799999E-04    2.1906051E-06
 -8.7749999E-04    2.4546355E-06
 -8.7699998E-04    2.6466435E-06
 -8.7649998E-04    2.7560995E-06
 -8.7599998E-04    2.7718429E-06
 -8.7549997E-04    2.6823270E-06
 -8.7500003E-04    2.4763262E-06
 -8.7450002E-04    2.1441140E-06
 -8.7400002E-04    1.6790547E-06
 -8.7350002E-04    1.0794913E-06
 -8.7300001E-04    3.5074464E-07
 -8.7250001E-04   -4.9300291E-07
 -8.7200000E-04   -1.4271988E-06
 -8.7150000E-04   -2.4160508E-06
 -8.7100000E-04   -3.4125355E-06
 -8.7049999E-04   -4.3594732E-06
 -8.6999999E-04   -5.1917832E-06
 -8.6949999E-04   -5.8399255E-06
 -8.6899998E-04   -6.2344266E-06
 -8.6849998E-04   -6.3112666E-06
 -8.6799997E-04   -6.0177799E-06
 -8.6750003E-04   -5.3186363E-06
 -8.6700002E-04   -4.2013921E-06
 -8.6650002E-04   -2.6810562E-06
 -8.6600002E-04   -8.0315954E-07
 -8.6550001E-04    1.3551658E-06
 -8.6500001E-04    3.6864481E-06
 -8.6450001E-04    6.0566940E-06
 -8.6400000E-04    8.3117857E-06
 -8.6350000E-04    1.0286259E-05
 -8.6299999E-04    1.1814067E-05
 -8.6249999E-04    1.2740698E-05
 -8.6199999E-04    1.2935862E-05
 -8.6149998E-04    1.2305799E-05
 -8.6099998E-04    1.0804232E-05
 -8.6049997E-04    8.4409558E-06
 -8.5999997E-04    5.2871455E-06
 -8.5950003E-04    1.4766582E-06
 -8.5900002E-04   -2.7971892E-06
 -8.5850002E-04   -7.2895577E-06
 -8.5800001E-04   -1.1716599E-05
 -8.5750001E-04   -1.5772022E-05
 -8.5700001E-04   -1.9146852E-05
 -8.5650000E-04   -2.1551194E-05
 -8.5600000E-04   -2.2736545E-05
 -8.5549999E-04   -2.2517068E-05
 -8.5499999E-04   -2.0788140E-05
 -8.5449999E-04   -1.7540613E-05
 -8.5399998E-04   -1.2869350E-05
 -8.5349998E-04   -6.9750172E-06
 -8.5299998E-04   -1.5840196E-07
 -8.5249997E-04    7.1928398E-06
 -8.5200003E-04    1.4624647E-05
 -8.5150002E-04    2.1643256E-05
 -8.5100002E-04    2.7746681E-05
 -8.5050002E-04    3.2459026E-05
 -8.5000001E-04    3.5365360E-05
 -8.4950001E-04    3.6144713E-05
 -8.4900000E-04    3.4598685E-05
 -8.4850000E-04    3.0673338E-05
 -8.4800000E-04    2.4472429E-05
 -8.4749999E-04    1.6260434E-05
 -8.4699999E-04    6.4545666E-06
 -8.4649998E-04   -4.3943069E-06
 -8.4599998E-04   -1.5631202E-05
 -8.4549998E-04   -2.6535476E-05
 -8.4499997E-04   -3.6366080E-05
 -8.4450003E-04   -4.4410768E-05
 -8.4400002E-04   -5.0036022E-05
 -8.4350002E-04   -5.2734340E-05
 -8.4300002E-04   -5.2165346E-05
 -8.4250001E-04   -4.8187638E-05
 -8.4200001E-04   -4.0878651E-05
 -8.4150000E-04   -3.0540632E-05
 -8.4100000E-04   -1.7691595E-05
 -8.4050000E-04   -3.0412034E-06
 -8.3999999E-04    1.2547435E-05
 -8.3949999E-04    2.8108112E-05
 -8.3899999E-04    4.2631043E-05
 -8.3849998E-04    5.5127945E-05
 -8.3799998E-04    6.4698419E-05
 -8.3749997E-04    7.0593269E-05
 -8.3700003E-04    7.2270217E-05
 -8.3650002E-04    6.9438087E-05
 -8.3600002E-04    6.2085986E-05
 -8.3550002E-04    5.0494993E-05
 -8.3500001E-04    3.5230907E-05
 -8.3450001E-04    1.7117978E-05
 -8.3400001E-04   -2.8052880E-06
 -8.3350000E-04   -2.3345949E-05
 -8.3300000E-04   -4.3228472E-05
 -8.3249999E-04   -6.1174287E-05
 -8.3199999E-04   -7.5984004E-05
 -8.3149999E-04   -8.6616899E-05
 -8.3099998E-04   -9.2262453E-05
 -8.3049998E-04   -9.2399023E-05
 -8.2999998E-04   -8.6835396E-05
 -8.2949997E-04   -7.5732343E-05
 -8.2900003E-04   -5.9602007E-05
 -8.2850002E-04   -3.9284998E-05
 -8.2800002E-04   -1.5905982E-05
 -8.2750001E-04    9.1897036E-06
 -8.2700001E-04    3.4514720E-05
 -8.2650001E-04    5.8528938E-05
 -8.2600000E-04    7.9733683E-05
 -8.2550000E-04    9.6765114E-05
 -8.2500000E-04    1.0848093E-04
 -8.2449999E-04    1.1403470E-04
 -8.2399999E-04    1.1293318E-04
 -8.2349998E-04    1.0507282E-04
 -8.2299998E-04    9.0752968E-05
 -8.2249998E-04    7.0664770E-05
 -8.2199997E-04    4.5856235E-05
 -8.2150003E-04    1.7675527E-05
 -8.2100002E-04   -1.2304350E-05
 -8.2050002E-04   -4.2374904E-05
 -8.2000002E-04   -7.0790302E-05
 -8.1950001E-04   -9.5868498E-05
 -8.1900001E-04   -1.1608941E-04
 -8.1850000E-04   -1.3018433E-04
 -8.1800000E-04   -1.3721148E-04
 -8.1750000E-04   -1.3661329E-04
 -8.1699999E-04   -1.2825234E-04
 -8.1649999E-04   -1.1242370E-04
 -8.1599999E-04   -8.9843488E-05
 -8.1549998E-04   -6.1614053E-05
 -8.1499998E-04   -2.9167984E-05
 -8.1449997E-04    5.8059259E-06
 -8.1400003E-04    4.1450679E-05
 -8.1350002E-04    7.5838339E-05
 -8.1300002E-04    1.0707136E-04
 -8.1250002E-04    1.3338283E-04
 -8.1200001E-04    1.5323046E-04
 -8.1150001E-04    1.6537980E-04
 -8.1100001E-04    1.6897244E-04
 -8.1050000E-04    1.6357626E-04
 -8.1000000E-04    1.4921497E-04
 -8.0949999E-04    1.2637598E-04
 -8.0899999E-04    9.5995849E-05
 -8.0849999E-04    5.9424074E-05
 -8.0799998E-04    1.8366640E-05
 -8.0749998E-04   -2.5188512E-05
 -8.0699997E-04   -6.9060930E-05
 -8.0649997E-04   -1.1097854E-04
 -8.0600003E-04   -1.4868579E-04
 -8.0550002E-04   -1.8005469E-04
 -8.0500002E-04   -2.0319389E-04
 -8.0450001E-04   -2.1655133E-04
 -8.0400001E-04   -2.1900522E-04
 -8.0350001E-04   -2.0993924E-04
 -8.0300000E-04   -1.8929760E-04
 -8.0250000E-04   -1.5761619E-04
 -8.0200000E-04   -1.1602693E-04
 -8.0149999E-04   -6.6233624E-05
 -8.0099999E-04   -1.0457846E-05
 -8.0049998E-04    4.8644262E-05
 -7.9999998E-04    1.0809274E-04
 -7.9949998E-04    1.6471870E-04
 -7.9899997E-04    2.1531858E-04
 -7.9850003E-04    2.5682125E-04
 -7.9800002E-04    2.8646065E-04
 -7.9750002E-04    3.0194482E-04
 -7.9700002E-04    3.0161242E-04
 -7.9650001E-04    2.8456666E-04
 -7.9600001E-04    2.5077732E-04
 -7.9550000E-04    2.0114271E-04
 -7.9500000E-04    1.3750402E-04
 -7.9450000E-04    6.2607658E-05
 -7.9399999E-04   -1.9987021E-05
 -7.9349999E-04   -1.0605390E-04
 -7.9299998E-04   -1.9089601E-04
 -7.9249998E-04   -2.6958392E-04
 -7.9199998E-04   -3.3722571E-04
 -7.9149997E-04   -3.8925526E-04
 -7.9100003E-04   -4.2172239E-04
 -7.9050002E-04   -4.3156810E-04
 -7.9000002E-04   -4.1686645E-04
 -7.8950002E-04   -3.7701579E-04
 -7.8900001E-04   -3.1286379E-04
 -7.8850001E-04   -2.2675334E-04
 -7.8800000E-04   -1.2248075E-04
 -7.8750000E-04   -5.1621578E-06
 -7.8700000E-04    1.1899009E-04
 -7.8649999E-04    2.4297361E-04
 -7.8599999E-04    3.5937125E-04
 -7.8549999E-04    4.6077720E-04
 -7.8499998E-04    5.4024992E-04
 -7.8449998E-04    5.9176580E-04
 -7.8399997E-04    6.1064458E-04
 -7.8350003E-04    5.9391814E-04
 -7.8300002E-04    5.4061553E-04
 -7.8250002E-04    4.5194032E-04
 -7.8200002E-04    3.3132380E-04
 -7.8150001E-04    1.8434113E-04
 -7.8100001E-04    1.8488725E-05
 -7.8050001E-04   -1.5717153E-04
 -7.8000000E-04   -3.3248673E-04
 -7.7950000E-04   -4.9678236E-04
 -7.7899999E-04   -6.3949602E-04
 -7.7849999E-04   -7.5083878E-04
 -7.7799999E-04   -8.2244317E-04
 -7.7749998E-04   -8.4795657E-04
 -7.7699998E-04   -8.2353828E-04
 -7.7649998E-04   -7.4822479E-04
 -7.7599997E-04   -6.2413164E-04
 -7.7550003E-04   -4.5647292E-04
 -7.7500002E-04   -2.5338578E-04
 -7.7450002E-04   -2.5563539E-05
 -7.7400001E-04    2.1428948E-04
 -7.7350001E-04    4.5215449E-04
 -7.7300001E-04    6.7350903E-04
 -7.7250000E-04    8.6420565E-04
 -7.7200000E-04    1.0113653E-03
 -7.7150000E-04    1.1042299E-03
 -7.7099999E-04    1.1349168E-03
 -7.7049999E-04    1.0990250E-03
 -7.6999998E-04    9.9604798E-04
 -7.6949998E-04    8.2955748E-04
 -7.6899998E-04    6.0714083E-04
 -7.6849997E-04    3.4008361E-04
 -7.6800003E-04    4.2809676E-05
 -7.6750002E-04   -2.6789500E-04
 -7.6700002E-04   -5.7383371E-04
 -7.6650002E-04   -8.5647102E-04
 -7.6600001E-04   -1.0980625E-03
 -7.6550001E-04   -1.2827716E-03
 -7.6500000E-04   -1.3977040E-03
 -7.6450000E-04   -1.4337915E-03
 -7.6400000E-04   -1.3864638E-03
 -7.6349999E-04   -1.2560622E-03
 -7.6299999E-04   -1.0479596E-03
 -7.6249999E-04   -7.7237166E-04
 -7.6199998E-04   -4.4386389E-04
 -7.6149998E-04   -8.0575723E-05
 -7.6099997E-04    2.9679504E-04
 -7.6050003E-04    6.6619110E-04
 -7.6000002E-04    1.0055063E-03
 -7.5950002E-04    1.2939289E-03
 -7.5900002E-04    1.5132354E-03
 -7.5850001E-04    1.6489505E-03
 -7.5800001E-04    1.6913018E-03
 -7.5750001E-04    1.6359040E-03
 -7.5700000E-04    1.4841250E-03
 -7.5650000E-04    1.2431076E-03
 -7.5599999E-04    9.2543673E-04
 -7.5549999E-04    5.4847199E-04
 -7.5499999E-04    1.3337712E-04
 -7.5449998E-04   -2.9609480E-04
 -7.5399998E-04   -7.1498932E-04
 -7.5349997E-04   -1.0986290E-03
 -7.5299997E-04   -1.4240918E-03
 -7.5250003E-04   -1.6715995E-03
 -7.5200002E-04   -1.8257299E-03
 -7.5150002E-04   -1.8763773E-03
 -7.5100001E-04   -1.8194028E-03
 -7.5050001E-04   -1.6569302E-03
 -7.5000001E-04   -1.3972705E-03
 -7.4950000E-04   -1.0544762E-03
 -7.4900000E-04   -6.4755284E-04
 -7.4850000E-04   -1.9937284E-04
 -7.4799999E-04    2.6464189E-04
 -7.4749999E-04    7.1799086E-04
 -7.4699998E-04    1.1346312E-03
 -7.4649998E-04    1.4904877E-03
 -7.4599998E-04    1.7648478E-03