 -1.2000001E-03    1.0000000E-24
 -1.1995001E-03    1.0000000E-24
 -1.1990000E-03    1.0000000E-24
 -1.1985000E-03    1.0000000E-24
 -1.1980000E-03    1.0000000E-24
 -1.1975000E-03    1.0000000E-24
 -1.1970000E-03    1.0000000E-24
 -1.1965000E-03    1.0000000E-24
 -1.1960000E-03    1.0000001E-24
 -1.1955000E-03    1.0000001E-24
 -1.1950000E-03    1.0000001E-24
 -1.1945000E-03    1.0000001E-24
 -1.1940000E-03    1.0000001E-24
 -1.1935000E-03    1.0000001E-24
 -1.1930000E-03    1.0000001E-24
 -1.1925000E-03    1.0000001E-24
 -1.1920000E-03    1.0000001E-24
 -1.1915000E-03    1.0000001E-24
 -1.1910000E-03    1.0000001E-24
 -1.1905000E-03    1.0000001E-24
 -1.1900000E-03    1.0000001E-24
 -1.1895000E-03    1.0000001E-24
 -1.1890000E-03    1.0000001E-24
 -1.1885000E-03    1.0000001E-24
 -1.1880000E-03    1.0000001E-24
 -1.1875000E-03    1.0000001E-24
 -1.1870000E-03    1.0000002E-24
 -1.1865000E-03    1.0000002E-24
 -1.1860000E-03    1.0000002E-24
 -1.1854999E-03    1.0000002E-24
 -1.1849999E-03    1.0000002E-24
 -1.1845001E-03    1.0000002E-24
 -1.1840001E-03    1.0000002E-24
 -1.1835000E-03    1.0000002E-24
 -1.1830000E-03    1.0000002E-24
 -1.1825000E-03    1.0000002E-24
 -1.1820000E-03    1.0000002E-24
 -1.1815000E-03    1.0000001E-24
 -1.1810000E-03    1.0000001E-24
 -1.1805000E-03    1.0000001E-24
 -1.1800000E-03    1.0000001E-24
 -1.1795000E-03    1.0000001E-24
 -1.1790000E-03    1.0000001E-24
 -1.1785000E-03    1.0000001E-24
 -1.1780000E-03    1.0000001E-24
 -1.1775000E-03    1.0000001E-24
 -1.1770000E-03    1.0000001E-24
 -1.1765000E-03    1.0000001E-24
 -1.1760000E-03    1.0000001E-24
 -1.1755000E-03    1.0000001E-24
 -1.1750000E-03    1.0000001E-24
 -1.1745000E-03    1.0000001E-24
 -1.1740000E-03    1.0000001E-24
 -1.1735000E-03    1.0000001E-24
 -1.1730000E-03    1.0000001E-24
 -1.1725000E-03    1.0000001E-24
 -1.1720000E-03    1.0000001E-24
 -1.1715000E-03    1.0000001E-24
 -1.1710000E-03    1.0000001E-24
 -1.1704999E-03    1.0000001E-24
 -1.1699999E-03    1.0000001E-24
 -1.1695001E-03    1.0000001E-24
 -1.1690001E-03    1.0000001E-24
 -1.1685000E-03    1.0000001E-24
 -1.1680000E-03    1.0000001E-24
 -1.1675000E-03    1.0000001E-24
 -1.1670000E-03    1.0000001E-24
 -1.1665000E-03    1.0000001E-24
 -1.1660000E-03    1.0000001E-24
 -1.1655000E-03    1.0000001E-24
 -1.1650000E-03    1.0000001E-24
 -1.1645000E-03    1.0000001E-24
 -1.1640000E-03    1.0000001E-24
 -1.1635000E-03    1.0000001E-24
 -1.1630000E-03    1.0000001E-24
 -1.1625000E-03    1.0000002E-24
 -1.1620000E-03    1.0000003E-24
 -1.1615000E-03    1.0000004E-24
 -1.1610000E-03    1.0000005E-24
 -1.1605000E-03    1.0000005E-24
 -1.1600000E-03    1.0000005E-24
 -1.1595000E-03    1.0000005E-24
 -1.1590000E-03    1.0000005E-24
 -1.1585000E-03    1.0000004E-24
 -1.1580000E-03    1.0000003E-24
 -1.1575000E-03    1.0000002E-24
 -1.1570000E-03    1.0000001E-24
 -1.1565000E-03    1.0000000E-24
 -1.1560000E-03    9.9999992E-25
 -1.1555000E-03    9.9999982E-25
 -1.1549999E-03    9.9999972E-25
 -1.1544999E-03    9.9999963E-25
 -1.1540001E-03    9.9999963E-25
 -1.1535001E-03    9.9999963E-25
 -1.1530000E-03    9.9999972E-25
 -1.1525000E-03    9.9999982E-25
 -1.1520000E-03    9.9999992E-25
 -1.1515000E-03    1.0000000E-24
 -1.1510000E-03    1.0000001E-24
 -1.1505000E-03    1.0000002E-24
 -1.1500000E-03    1.0000003E-24
 -1.1495000E-03    1.0000004E-24
 -1.1490000E-03    1.0000005E-24
 -1.1485000E-03    1.0000006E-24
 -1.1480000E-03    1.0000007E-24
 -1.1475000E-03    1.0000007E-24
 -1.1470000E-03    1.0000007E-24
 -1.1465000E-03    1.0000007E-24
 -1.1460000E-03    1.0000007E-24
 -1.1455000E-03    1.0000007E-24
 -1.1450000E-03    1.0000006E-24
 -1.1445000E-03    1.0000005E-24
 -1.1440000E-03    1.0000004E-24
 -1.1435000E-03    1.0000003E-24
 -1.1430000E-03    1.0000002E-24
 -1.1425000E-03    1.0000001E-24
 -1.1420000E-03    1.0000000E-24
 -1.1415000E-03    9.9999992E-25
 -1.1410000E-03    9.9999982E-25
 -1.1405000E-03    9.9999972E-25
 -1.1399999E-03    9.9999963E-25
 -1.1394999E-03    9.9999953E-25
 -1.1390001E-03    9.9999943E-25
 -1.1385001E-03    9.9999933E-25
 -1.1380001E-03    9.9999923E-25
 -1.1375000E-03    9.9999913E-25
 -1.1370000E-03    9.9999913E-25
 -1.1365000E-03    9.9999913E-25
 -1.1360000E-03    9.9999923E-25
 -1.1355000E-03    9.9999933E-25
 -1.1350000E-03    9.9999953E-25
 -1.1345000E-03    9.9999972E-25
 -1.1340000E-03    9.9999992E-25
 -1.1335000E-03    1.0000001E-24
 -1.1330000E-03    1.0000002E-24
 -1.1325000E-03    1.0000000E-24
 -1.1320000E-03    1.0000001E-24
 -1.1315000E-03    1.0000001E-24
 -1.1310000E-03    1.0000002E-24
 -1.1305000E-03    1.0000003E-24
 -1.1300000E-03    1.0000000E-24
 -1.1295000E-03    9.9999943E-25
 -1.1290000E-03    9.9999953E-25
 -1.1285000E-03    9.9999963E-25
 -1.1280000E-03    1.0000000E-24
 -1.1275000E-03    9.9999982E-25
 -1.1270000E-03    9.9999716E-25
 -1.1265000E-03    9.9999341E-25
 -1.1260000E-03    9.9999272E-25
 -1.1255000E-03    9.9999193E-25
 -1.1250000E-03    9.9999036E-25
 -1.1244999E-03    9.9998592E-25
 -1.1239999E-03    9.9999114E-25
 -1.1235001E-03    9.9999874E-25
 -1.1230001E-03    1.0000096E-24
 -1.1225000E-03    1.0000238E-24
 -1.1220000E-03    1.0000338E-24
 -1.1215000E-03    1.0000422E-24
 -1.1210000E-03    1.0000521E-24
 -1.1205000E-03    1.0000535E-24
 -1.1200000E-03    1.0000369E-24
 -1.1195000E-03    1.0000035E-24
 -1.1190000E-03    9.9995870E-25
 -1.1185000E-03    9.9984807E-25
 -1.1180000E-03    9.9973555E-25
 -1.1175000E-03    9.9969641E-25
 -1.1170000E-03    9.9962718E-25
 -1.1165000E-03    9.9950146E-25
 -1.1160000E-03    9.9926736E-25
 -1.1155000E-03    9.9905595E-25
 -1.1150000E-03    9.9888970E-25
 -1.1145000E-03    9.9872719E-25
 -1.1140000E-03    9.9881318E-25
 -1.1135000E-03    9.9936597E-25
 -1.1130000E-03    9.9984343E-25
 -1.1125000E-03    1.0000800E-24
 -1.1120000E-03    1.0000906E-24
 -1.1115000E-03    1.0003272E-24
 -1.1110000E-03    9.9956989E-25
 -1.1105000E-03    9.9903840E-25
 -1.1100000E-03    9.9888713E-25
 -1.1094999E-03    9.9828040E-25
 -1.1089999E-03    9.9785432E-25
 -1.1084999E-03    9.9775956E-25
 -1.1080001E-03    9.9932120E-25
 -1.1075001E-03    1.0014852E-24
 -1.1070000E-03    1.0040107E-24
 -1.1065000E-03    1.0073793E-24
 -1.1060000E-03    1.0087001E-24
 -1.1055000E-03    1.0068886E-24
 -1.1050000E-03    1.0065228E-24
 -1.1045000E-03    1.0065786E-24
 -1.1040000E-03    1.0033819E-24
 -1.1035000E-03    1.0020373E-24
 -1.1030000E-03    9.9674735E-25
 -1.1025000E-03    9.9483052E-25
 -1.1020000E-03    9.9339558E-25
 -1.1015000E-03    9.9412902E-25
 -1.1010000E-03    9.8859822E-25
 -1.1005000E-03    9.9222284E-25
 -1.1000000E-03    9.8042769E-25
 -1.0995000E-03    9.6525957E-25
 -1.0990000E-03    9.7081167E-25
 -1.0985000E-03    9.8600109E-25
 -1.0980000E-03    9.9299878E-25
 -1.0975000E-03    9.8457670E-25
 -1.0970000E-03    9.5401890E-25
 -1.0965000E-03    9.2297929E-25
 -1.0960000E-03    8.9675834E-25
 -1.0955000E-03    8.8595706E-25
 -1.0950000E-03    8.5973611E-25
 -1.0945000E-03    8.6242712E-25
 -1.0939999E-03    8.0343935E-25
 -1.0934999E-03    7.4637902E-25
 -1.0930001E-03    7.7605464E-25
 -1.0925001E-03    8.5777185E-25
 -1.0920000E-03    1.0397173E-24
 -1.0915000E-03    1.2563569E-24
 -1.0910000E-03    1.4975719E-24
 -1.0905000E-03    1.7040924E-24
 -1.0900000E-03    1.9491621E-24
 -1.0895000E-03    2.0477445E-24
 -1.0890000E-03    2.0846480E-24
 -1.0885000E-03    1.8979652E-24
 -1.0880000E-03    1.4568571E-24
 -1.0875000E-03    9.5406997E-25
 -1.0870000E-03    4.2044344E-25
 -1.0865000E-03   -1.6715208E-25
 -1.0860000E-03   -6.1596991E-25
 -1.0855000E-03   -1.2035652E-24
 -1.0850000E-03   -1.5945589E-24
 -1.0845000E-03   -2.2385321E-24
 -1.0840000E-03   -3.5378436E-24
 -1.0835000E-03   -4.3437241E-24
 -1.0830000E-03   -4.4557163E-24
 -1.0825000E-03   -4.6602270E-24
 -1.0820000E-03   -5.5123656E-24
 -1.0815000E-03   -5.9944314E-24
 -1.0810000E-03   -5.4279559E-24
 -1.0805000E-03   -3.6895821E-24
 -1.0800000E-03   -1.2727417E-24
 -1.0795000E-03   -2.1283783E-25
 -1.0790000E-03    3.9989280E-25
 -1.0784999E-03    9.3552435E-25
 -1.0779999E-03    1.9645861E-24
 -1.0775001E-03    3.5795984E-24
 -1.0770001E-03    6.2431529E-24
 -1.0765000E-03    9.8935708E-24
 -1.0760000E-03    1.5456037E-23
 -1.0755000E-03    2.1758653E-23
 -1.0750000E-03    2.8431345E-23
 -1.0745000E-03    3.2883601E-23
 -1.0740000E-03    4.2763604E-23
 -1.0735000E-03    5.0916595E-23
 -1.0730000E-03    5.7527612E-23
 -1.0725000E-03    5.6829678E-23
 -1.0720000E-03    4.5307090E-23
 -1.0715000E-03    2.6259676E-23
 -1.0710000E-03    4.2516716E-24
 -1.0705000E-03   -1.8496475E-23
 -1.0700000E-03   -4.5192071E-23
 -1.0695000E-03   -6.4239487E-23
 -1.0690000E-03   -8.8714641E-23
 -1.0685000E-03   -1.0258102E-22
 -1.0680000E-03   -1.1027952E-22
 -1.0675000E-03   -1.0169480E-22
 -1.0670000E-03   -7.6456765E-23
 -1.0665000E-03   -4.5112522E-23
 -1.0660000E-03   -2.5774072E-24
 -1.0655000E-03    5.5994218E-23
 -1.0650000E-03    1.3109578E-22
 -1.0645000E-03    2.0940465E-22
 -1.0640000E-03    2.8722009E-22
 -1.0634999E-03    3.5516689E-22
 -1.0629999E-03    4.0929762E-22
 -1.0625001E-03    4.2938161E-22
 -1.0620001E-03    4.0851080E-22
 -1.0615001E-03    3.6099474E-22
 -1.0610000E-03    2.7745821E-22
 -1.0605000E-03    1.8133918E-22
 -1.0600000E-03    3.3348192E-23
 -1.0595000E-03   -1.1106539E-22
 -1.0590000E-03   -2.3574175E-22
 -1.0585000E-03   -3.1896991E-22
 -1.0580000E-03   -3.6765790E-22
 -1.0575000E-03   -3.1075160E-22
 -1.0570000E-03   -1.7884380E-22
 -1.0565000E-03   -7.4615426E-24
 -1.0560000E-03    1.3924913E-22
 -1.0555000E-03    2.6918312E-22
 -1.0550000E-03    3.7345864E-22
 -1.0545000E-03    5.3003794E-22
 -1.0540000E-03    7.5915167E-22
 -1.0535000E-03    9.5705584E-22
 -1.0530000E-03    1.1075908E-21
 -1.0525000E-03    1.2472702E-21
 -1.0520000E-03    1.2547100E-21
 -1.0515000E-03    1.1141204E-21
 -1.0510000E-03    9.0247657E-22
 -1.0505000E-03    5.4280335E-22
 -1.0500000E-03    1.0220744E-22
 -1.0495000E-03   -4.6273319E-22
 -1.0490000E-03   -1.0553062E-21
 -1.0485000E-03   -1.8195932E-21
 -1.0479999E-03   -2.3386450E-21
 -1.0474999E-03   -2.5562100E-21
 -1.0470001E-03   -2.7234453E-21
 -1.0465001E-03   -2.5906743E-21
 -1.0460000E-03   -1.9763142E-21
 -1.0455000E-03   -5.9220129E-22
 -1.0450000E-03    1.0248117E-21
 -1.0445000E-03    2.6576144E-21
 -1.0440000E-03    4.4877897E-21
 -1.0435000E-03    5.8561136E-21
 -1.0430000E-03    6.5020540E-21
 -1.0425000E-03    6.5164028E-21
 -1.0420000E-03    5.4190512E-21
 -1.0415000E-03    3.9111644E-21
 -1.0410000E-03    1.8269498E-21
 -1.0405000E-03   -5.3358637E-22
 -1.0400000E-03   -4.0783583E-21
 -1.0395000E-03   -7.2599647E-21
 -1.0390000E-03   -1.0441572E-20
 -1.0385000E-03   -1.3023168E-20
 -1.0380000E-03   -1.3994204E-20
 -1.0375000E-03   -1.4396810E-20
 -1.0370000E-03   -1.2273048E-20
 -1.0365000E-03   -8.3650376E-21
 -1.0360000E-03   -4.2497838E-21
 -1.0355000E-03   -2.4000866E-23
 -1.0350000E-03    4.5807380E-21
 -1.0345000E-03    9.3117951E-21
 -1.0340000E-03    9.8111868E-21
 -1.0335000E-03    6.8999844E-21
 -1.0329999E-03   -2.9587320E-21
 -1.0324999E-03   -1.6733319E-20
 -1.0319999E-03   -3.5055368E-20
 -1.0315001E-03   -5.7735397E-20
 -1.0310001E-03   -8.0099634E-20
 -1.0305000E-03   -1.0344285E-19
 -1.0300000E-03   -1.2714921E-19
 -1.0295000E-03   -1.4896083E-19
 -1.0290000E-03   -1.7405671E-19
 -1.0285000E-03   -2.0117371E-19
 -1.0280000E-03   -2.2349060E-19
 -1.0275000E-03   -2.4984970E-19
 -1.0270000E-03   -2.6837707E-19
 -1.0265000E-03   -2.7275676E-19
 -1.0260000E-03   -2.5793609E-19
 -1.0255000E-03   -2.3907321E-19
 -1.0250000E-03   -2.0050466E-19
 -1.0245000E-03   -1.3073547E-19
 -1.0240000E-03   -5.1271333E-20
 -1.0235000E-03    4.3603656E-20
 -1.0230000E-03    1.7283727E-19
 -1.0225000E-03    3.0004982E-19
 -1.0220000E-03    4.6364207E-19
 -1.0215000E-03    6.0298122E-19
 -1.0210000E-03    6.7764538E-19
 -1.0205000E-03    6.7550800E-19
 -1.0200000E-03    6.1172726E-19
 -1.0195000E-03    4.6710269E-19
 -1.0190000E-03    2.2950788E-19
 -1.0185000E-03   -6.7709257E-20
 -1.0180000E-03   -4.2132755E-19
 -1.0174999E-03   -7.4058726E-19
 -1.0169999E-03   -1.1033005E-18
 -1.0165001E-03   -1.4518663E-18
 -1.0160001E-03   -1.6448078E-18
 -1.0155000E-03   -1.7164836E-18
 -1.0150000E-03   -1.7315690E-18
 -1.0145000E-03   -1.6213466E-18
 -1.0140000E-03   -1.3696475E-18
 -1.0135000E-03   -1.0007252E-18
 -1.0130000E-03   -6.0957085E-19
 -1.0125000E-03   -2.0325840E-19
 -1.0120000E-03    2.3311788E-19
 -1.0115000E-03    5.7854491E-19
 -1.0110000E-03    8.8355018E-19
 -1.0105000E-03    1.1804713E-18
 -1.0100000E-03    1.4369708E-18
 -1.0095000E-03    1.4590237E-18
 -1.0090000E-03    1.3598112E-18
 -1.0085000E-03    1.1150800E-18
 -1.0080000E-03    8.2184261E-19
 -1.0075000E-03    5.2860517E-19
 -1.0070000E-03   -6.3754228E-20
 -1.0065000E-03   -7.7737943E-19
 -1.0060000E-03   -1.2328098E-18
 -1.0055000E-03   -1.4214561E-18
 -1.0050000E-03   -1.1573779E-18
 -1.0045000E-03   -8.2862508E-19
 -1.0040000E-03   -4.7147518E-20
 -1.0035000E-03    8.6367996E-19
 -1.0030000E-03    1.6774948E-18
 -1.0025000E-03    2.7823475E-18
 -1.0019999E-03    3.8548622E-18
 -1.0014999E-03    4.7333525E-18
 -1.0010001E-03    5.9028800E-18
 -1.0005001E-03    5.9325104E-18
 -1.0000000E-03    5.6589771E-18
 -9.9950004E-04    3.4936995E-18
 -9.9900004E-04    1.3607599E-18
 -9.9850004E-04   -1.7746414E-18
 -9.9800003E-04   -5.4597800E-18
 -9.9750003E-04   -1.0244393E-17
 -9.9700002E-04   -1.4188230E-17
 -9.9650002E-04   -1.8261418E-17
 -9.9600002E-04   -2.2140583E-17
 -9.9550001E-04   -2.5696371E-17
 -9.9500001E-04   -2.7958662E-17
 -9.9450001E-04   -2.8701089E-17
 -9.9400000E-04   -2.6721104E-17
 -9.9350000E-04   -2.3512293E-17
 -9.9299999E-04   -1.8169209E-17
 -9.9249999E-04   -1.0691851E-17
 -9.9199999E-04   -7.5684358E-19
 -9.9149998E-04    1.1247764E-17
 -9.9099998E-04    2.3640420E-17
 -9.9049998E-04    3.4868925E-17
 -9.8999997E-04    4.3769137E-17
 -9.8949997E-04    4.9694301E-17
 -9.8899996E-04    4.9798718E-17
 -9.8849996E-04    4.3759009E-17
 -9.8799996E-04    3.4105586E-17
 -9.8749995E-04    2.3805413E-17
 -9.8699995E-04    1.0271492E-17
 -9.8649994E-04   -6.3668278E-18
 -9.8600006E-04   -2.8179152E-17
 -9.8550005E-04   -4.6887069E-17
 -9.8500005E-04   -6.3007995E-17
 -9.8450005E-04   -7.4731017E-17
 -9.8400004E-04   -8.2056145E-17
 -9.8350004E-04   -8.1102882E-17
 -9.8300003E-04   -7.1095121E-17
 -9.8250003E-04   -5.4361168E-17
 -9.8200003E-04   -2.9809627E-17
 -9.8150002E-04    3.7964141E-18
 -9.8100002E-04    4.7233062E-17
 -9.8050002E-04    8.8082711E-17
 -9.8000001E-04    1.3410637E-16
 -9.7950001E-04    1.8892584E-16
 -9.7900000E-04    2.4581492E-16
 -9.7850000E-04    2.9390820E-16
 -9.7800000E-04    3.3113612E-16
 -9.7749999E-04    3.6112045E-16
 -9.7699999E-04    3.8023939E-16
 -9.7649998E-04    3.8655267E-16
 -9.7599998E-04    3.7601815E-16
 -9.7549998E-04    3.2241004E-16
 -9.7499997E-04    2.4344937E-16
 -9.7450003E-04    1.5051884E-16
 -9.7400002E-04    6.5349307E-17
 -9.7350002E-04   -4.1551052E-17
 -9.7300002E-04   -1.5569505E-16
 -9.7250001E-04   -2.6156068E-16
 -9.7200001E-04   -3.4466072E-16
 -9.7150001E-04   -4.0965181E-16
 -9.7100000E-04   -4.4825555E-16
 -9.7050000E-04   -4.6331760E-16
 -9.6999999E-04   -4.3934432E-16
 -9.6949999E-04   -3.6311363E-16
 -9.6899999E-04   -2.4031688E-16
 -9.6849998E-04   -5.7501738E-17
 -9.6799998E-04    1.5014865E-16
 -9.6749997E-04    3.6918188E-16
 -9.6700003E-04    5.9131952E-16
 -9.6650003E-04    7.7516972E-16
 -9.6600002E-04    9.2280195E-16
 -9.6550002E-04    1.0280076E-15
 -9.6500001E-04    1.0675033E-15
 -9.6450001E-04    1.0340459E-15
 -9.6400001E-04    9.1360042E-16
 -9.6350000E-04    7.2770390E-16
 -9.6300000E-04    4.4971017E-16
 -9.6249999E-04    8.5828049E-17
 -9.6199999E-04   -3.5462935E-16
 -9.6149999E-04   -8.3027001E-16
 -9.6099998E-04   -1.3100500E-15
 -9.6049998E-04   -1.7505077E-15
 -9.5999998E-04   -2.0957639E-15
 -9.5949997E-04   -2.3137397E-15
 -9.5900003E-04   -2.3464865E-15
 -9.5850002E-04   -2.1960737E-15
 -9.5800002E-04   -1.8549992E-15
 -9.5750001E-04   -1.2792837E-15
 -9.5700001E-04   -4.7798180E-16
 -9.5650001E-04    4.5267013E-16
 -9.5600000E-04    1.4474799E-15
 -9.5550000E-04    2.4443594E-15
 -9.5500000E-04    3.3750119E-15
 -9.5449999E-04    4.2166715E-15
 -9.5399999E-04    4.7996317E-15
 -9.5349998E-04    5.0142030E-15
 -9.5299998E-04    4.8686641E-15
 -9.5249998E-04    4.3350757E-15
 -9.5199997E-04    3.3896363E-15
 -9.5150003E-04    2.0597688E-15
 -9.5100002E-04    4.3394800E-16
 -9.5050002E-04   -1.3708932E-15
 -9.5000002E-04   -3.4044253E-15
 -9.4950001E-04   -5.5435071E-15
 -9.4900001E-04   -7.4507949E-15
 -9.4850000E-04   -9.0414338E-15
 -9.4800000E-04   -1.0214014E-14
 -9.4750000E-04   -1.0852638E-14
 -9.4699999E-04   -1.0855894E-14
 -9.4649999E-04   -1.0198948E-14
 -9.4599999E-04   -8.9294018E-15
 -9.4549998E-04   -6.9768871E-15
 -9.4499998E-04   -4.4510925E-15
 -9.4449997E-04   -1.5620826E-15
 -9.4400003E-04    1.7690461E-15
 -9.4350002E-04    5.0758576E-15
 -9.4300002E-04    8.4033664E-15
 -9.4250002E-04    1.1364557E-14
 -9.4200001E-04    1.3731773E-14
 -9.4150001E-04    1.5221479E-14
 -9.4100001E-04    1.5779865E-14
 -9.4050000E-04    1.5253783E-14
 -9.4000000E-04    1.3618394E-14
 -9.3949999E-04    1.0844725E-14
 -9.3899999E-04    6.9327771E-15
 -9.3849999E-04    2.1226214E-15
 -9.3799998E-04   -3.0642020E-15
 -9.3749998E-04   -8.3669245E-15
 -9.3699998E-04   -1.3860053E-14
 -9.3649997E-04   -1.8819226E-14
 -9.3600003E-04   -2.2781888E-14
 -9.3550002E-04   -2.5569019E-14
 -9.3500002E-04   -2.6733585E-14
 -9.3450001E-04   -2.6043790E-14
 -9.3400001E-04   -2.3325788E-14
 -9.3350001E-04   -1.8703755E-14
 -9.3300000E-04   -1.2376369E-14
 -9.3250000E-04   -4.9231207E-15
 -9.3200000E-04    3.2089587E-15
 -9.3149999E-04    1.1622506E-14
 -9.3099999E-04    1.9522793E-14
 -9.3049998E-04    2.6057149E-14
 -9.2999998E-04    3.0985499E-14
 -9.2949998E-04    3.3753186E-14
 -9.2899997E-04    3.3631718E-14
 -9.2850003E-04    3.0894277E-14
 -9.2800002E-04    2.5259393E-14
 -9.2750002E-04    1.6876083E-14
 -9.2700002E-04    6.2410472E-15
 -9.2650001E-04   -6.1158981E-15
 -9.2600001E-04   -1.9764277E-14
 -9.2550000E-04   -3.2684159E-14
 -9.2500000E-04   -4.4776208E-14
 -9.2450000E-04   -5.4335066E-14
 -9.2399999E-04   -6.1178622E-14
 -9.2349999E-04   -6.3939888E-14
 -9.2299999E-04   -6.2247381E-14
 -9.2249998E-04   -5.6581242E-14
 -9.2199998E-04   -4.6974587E-14
 -9.2149997E-04   -3.2930717E-14
 -9.2100003E-04   -1.5641707E-14
 -9.2050002E-04    4.2963925E-15
 -9.2000002E-04    2.5559038E-14
 -9.1950002E-04    4.7020368E-14
 -9.1900001E-04    6.7157163E-14
 -9.1850001E-04    8.2922967E-14
 -9.1800001E-04    9.3953538E-14
 -9.1750000E-04    9.9085752E-14
 -9.1700000E-04    9.8952910E-14
 -9.1649999E-04    9.2958959E-14
 -9.1599999E-04    8.2461564E-14
 -9.1549999E-04    6.7129590E-14
 -9.1499998E-04    4.7360390E-14
 -9.1449998E-04    2.3087741E-14
 -9.1399997E-04   -5.4234507E-15
 -9.1349997E-04   -3.4994282E-14
 -9.1300003E-04   -6.4697576E-14
 -9.1250002E-04   -9.6387687E-14
 -9.1200002E-04   -1.2701817E-13
 -9.1150001E-04   -1.5009048E-13
 -9.1100001E-04   -1.6837790E-13
 -9.1050001E-04   -1.7600273E-13
 -9.1000000E-04   -1.7634258E-13
 -9.0950000E-04   -1.6873518E-13
 -9.0899999E-04   -1.5119373E-13
 -9.0849999E-04   -1.2464536E-13
 -9.0799999E-04   -9.1606728E-14
 -9.0749998E-04   -5.0753279E-14
 -9.0699998E-04   -5.5288255E-15
 -9.0649998E-04    4.2212277E-14
 -9.0599997E-04    8.9556028E-14
 -9.0550003E-04    1.3322420E-13
 -9.0500002E-04    1.7149486E-13
 -9.0450002E-04    2.0102358E-13
 -9.0400001E-04    2.1545249E-13
 -9.0350001E-04    2.1716582E-13
 -9.0300001E-04    2.0351444E-13
 -9.0250000E-04    1.7476328E-13
 -9.0200000E-04    1.2905796E-13
 -9.0150000E-04    7.0637018E-14
 -9.0099999E-04    4.0038777E-15
 -9.0049999E-04   -6.9781820E-14
 -8.9999998E-04   -1.4376622E-13
 -8.9949998E-04   -2.1417441E-13
 -8.9899998E-04   -2.7463199E-13
 -8.9849997E-04   -3.1945998E-13
 -8.9800003E-04   -3.3872430E-13
 -8.9750002E-04   -3.2937851E-13
 -8.9700002E-04   -2.9115764E-13
 -8.9650002E-04   -2.2406175E-13
 -8.9600001E-04   -1.3232936E-13
 -8.9550001E-04   -1.9669132E-14
 -8.9500000E-04    1.0411728E-13
 -8.9450000E-04    2.3108262E-13
 -8.9400000E-04    3.5341210E-13
 -8.9349999E-04    4.6156899E-13
 -8.9299999E-04    5.4967570E-13
 -8.9249999E-04    6.0983450E-13
 -8.9199998E-04    6.3926403E-13
 -8.9149998E-04    6.2365906E-13
 -8.9099997E-04    5.6990724E-13
 -8.9050003E-04    4.6661752E-13
 -8.9000002E-04    3.1405477E-13
 -8.8950002E-04    1.1619256E-13
 -8.8900002E-04   -1.1531309E-13
 -8.8850001E-04   -3.5768009E-13
 -8.8800001E-04   -5.9898749E-13
 -8.8750001E-04   -8.1539354E-13
 -8.8700000E-04   -9.9520923E-13
 -8.8650000E-04   -1.1294275E-12
 -8.8599999E-04   -1.1983458E-12
 -8.8549999E-04   -1.1831556E-12
 -8.8499999E-04   -1.0861086E-12
 -8.8449998E-04   -9.1886080E-13
 -8.8399998E-04   -6.7955786E-13
 -8.8349998E-04   -3.7747149E-13
 -8.8299997E-04   -2.4522541E-14
 -8.8250003E-04    3.4644027E-13
 -8.8200002E-04    7.1078045E-13
 -8.8150002E-04    1.0447887E-12
 -8.8100001E-04    1.3187951E-12
 -8.8050001E-04    1.5220711E-12
 -8.8000001E-04    1.6320992E-12
 -8.7950000E-04    1.6349387E-12
 -8.7900000E-04    1.5187680E-12
 -8.7850000E-04    1.2845804E-12
 -8.7799999E-04    9.0257370E-13
 -8.7749999E-04    4.4559766E-13
 -8.7699998E-04   -9.8003569E-14
 -8.7649998E-04   -6.6412213E-13
 -8.7599998E-04   -1.2222935E-12
 -8.7549997E-04   -1.7335763E-12
 -8.7500003E-04   -2.1558499E-12
 -8.7450002E-04   -2.4655371E-12
 -8.7400002E-04   -2.6311143E-12
 -8.7350002E-04   -2.6446341E-12
 -8.7300001E-04   -2.4952349E-12
 -8.7250001E-04   -2.1841088E-12
 -8.7200000E-04   -1.7352965E-12
 -8.7150000E-04   -1.1705369E-12
 -8.7100000E-04   -5.2219844E-13
 -8.7049999E-04    1.4415385E-13
 -8.6999999E-04    7.9964502E-13
 -8.6949999E-04    1.4116914E-12
 -8.6899998E-04    1.9289006E-12
 -8.6849998E-04    2.3104769E-12
 -8.6799997E-04    2.5198626E-12
 -8.6750003E-04    2.5528195E-12
 -8.6700002E-04    2.4003403E-12
 -8.6650002E-04    2.0565971E-12
 -8.6600002E-04    1.5252987E-12
 -8.6550001E-04    8.5306865E-13
 -8.6500001E-04    5.1827978E-14
 -8.6450001E-04   -8.1892658E-13
 -8.6400000E-04   -1.6761710E-12
 -8.6350000E-04   -2.4873215E-12
 -8.6299999E-04   -3.1501236E-12
 -8.6249999E-04   -3.7101416E-12
 -8.6199999E-04   -4.1101549E-12
 -8.6149998E-04   -4.2494988E-12
 -8.6099998E-04   -4.0963838E-12
 -8.6049997E-04   -3.6253782E-12
 -8.5999997E-04   -2.8884048E-12
 -8.5950003E-04   -1.8918207E-12
 -8.5900002E-04   -6.6847455E-13
 -8.5850002E-04    7.2388341E-13
 -8.5800001E-04    2.2814123E-12
 -8.5750001E-04    3.8516577E-12
 -8.5700001E-04    5.3201779E-12
 -8.5650000E-04    6.5068367E-12
 -8.5600000E-04    7.4031553E-12
 -8.5549999E-04    7.9391988E-12
 -8.5499999E-04    8.0577472E-12
 -8.5449999E-04    7.7587997E-12
 -8.5399998E-04    6.9575855E-12
 -8.5349998E-04    5.6604630E-12
 -8.5299998E-04    3.9670368E-12
 -8.5249997E-04    1.9207513E-12
 -8.5200003E-04   -5.5918990E-13
 -8.5150002E-04   -3.4047062E-12
 -8.5100002E-04   -6.2565816E-12
 -8.5050002E-04   -8.9346777E-12
 -8.5000001E-04   -1.1121103E-11
 -8.4950001E-04   -1.2667511E-11
 -8.4900000E-04   -1.3294156E-11
 -8.4850000E-04   -1.3030709E-11
 -8.4800000E-04   -1.1957702E-11
 -8.4749999E-04   -1.0134473E-11
 -8.4699999E-04   -7.6224816E-12
 -8.4649998E-04   -4.5446442E-12
 -8.4599998E-04   -1.0281174E-12
 -8.4549998E-04    2.7702734E-12
 -8.4499997E-04    6.5612481E-12
 -8.4450003E-04    1.0108508E-11
 -8.4400002E-04    1.3049659E-11
 -8.4350002E-04    1.5249068E-11
 -8.4300002E-04    1.6380366E-11
 -8.4250001E-04    1.6371496E-11
 -8.4200001E-04    1.5171600E-11
 -8.4150000E-04    1.2793388E-11
 -8.4100000E-04    9.3046786E-12
 -8.4050000E-04    4.9830951E-12
 -8.3999999E-04    1.0202274E-13
 -8.3949999E-04   -4.8109060E-12
 -8.3899999E-04   -9.4197219E-12
 -8.3849998E-04   -1.3212620E-11
 -8.3799998E-04   -1.6268015E-11
 -8.3749997E-04   -1.7937409E-11
 -8.3700003E-04   -1.8072453E-11
 -8.3650002E-04   -1.6766394E-11
 -8.3600002E-04   -1.4150629E-11
 -8.3550002E-04   -1.0483705E-11
 -8.3500001E-04   -5.9521190E-12
 -8.3450001E-04   -8.9919196E-13
 -8.3400001E-04    4.3444714E-12
 -8.3350000E-04    9.2538217E-12
 -8.3300000E-04    1.3452159E-11
 -8.3249999E-04    1.6410725E-11
 -8.3199999E-04    1.7991770E-11
 -8.3149999E-04    1.7648518E-11
 -8.3099998E-04    1.4940164E-11
 -8.3049998E-04    1.0299035E-11
 -8.2999998E-04    3.8353370E-12
 -8.2949997E-04   -3.5099775E-12
 -8.2900003E-04   -1.1431733E-11
 -8.2850002E-04   -1.9311103E-11
 -8.2800002E-04   -2.6478398E-11
 -8.2750001E-04   -3.2230021E-11
 -8.2700001E-04   -3.6448289E-11
 -8.2650001E-04   -3.8699880E-11
 -8.2600000E-04   -3.9247581E-11
 -8.2550000E-04   -3.7612441E-11
 -8.2500000E-04   -3.3603717E-11
 -8.2449999E-04   -2.7679175E-11
 -8.2399999E-04   -1.9677752E-11
 -8.2349998E-04   -1.0455629E-11
 -8.2299998E-04   -2.8831204E-13
 -8.2249998E-04    1.0535981E-11
 -8.2199997E-04    2.1029669E-11
 -8.2150003E-04    3.1097389E-11
 -8.2100002E-04    3.9966662E-11
 -8.2050002E-04    4.7404379E-11
 -8.2000002E-04    5.2807602E-11
 -8.1950001E-04    5.5559623E-11
 -8.1900001E-04    5.5459113E-11
 -8.1850000E-04    5.2209372E-11
 -8.1800000E-04    4.7467669E-11
 -8.1750000E-04    3.9920053E-11
 -8.1699999E-04    3.0448144E-11
 -8.1649999E-04    1.9229951E-11
 -8.1599999E-04    7.0835143E-12
 -8.1549998E-04   -5.3850570E-12
 -8.1499998E-04   -1.7671380E-11
 -8.1449997E-04   -2.8688269E-11
 -8.1400003E-04   -3.8213200E-11
 -8.1350002E-04   -4.5821659E-11
 -8.1300002E-04   -5.0167509E-11
 -8.1250002E-04   -5.1414466E-11
 -8.1200001E-04   -4.8468979E-11
 -8.1150001E-04   -4.0732889E-11
 -8.1100001E-04   -2.9505304E-11
 -8.1050000E-04   -1.5222788E-11
 -8.1000000E-04    1.6971652E-12
 -8.0949999E-04    1.9999950E-11
 -8.0899999E-04    3.8266716E-11
 -8.0849999E-04    5.5927381E-11
 -8.0799998E-04    7.1189041E-11
 -8.0749998E-04    8.3500692E-11
 -8.0699997E-04    9.2218067E-11
 -8.0649997E-04    9.7133482E-11
 -8.0600003E-04    9.8162159E-11
 -8.0550002E-04    9.4299568E-11
 -8.0500002E-04    8.4808202E-11
 -8.0450001E-04    6.9861832E-11
 -8.0400001E-04    5.1503430E-11
 -8.0350001E-04    3.0420701E-11
 -8.0300000E-04    6.8107282E-12
 -8.0250000E-04   -1.8062345E-11
 -8.0200000E-04   -4.2367467E-11
 -8.0149999E-04   -6.5121297E-11
 -8.0099999E-04   -8.5866078E-11
 -8.0049998E-04   -1.0195696E-10
 -7.9999998E-04   -1.1340241E-10
 -7.9949998E-04   -1.2040587E-10
 -7.9899997E-04   -1.2018687E-10
 -7.9850003E-04   -1.1362700E-10
 -7.9800002E-04   -1.0286250E-10
 -7.9750002E-04   -8.7791642E-11
 -7.9700002E-04   -6.8704743E-11
 -7.9650001E-04   -4.6513095E-11
 -7.9600001E-04   -2.2108907E-11
 -7.9550000E-04    2.8717406E-12
 -7.9500000E-04    2.6292626E-11
 -7.9450000E-04    4.6153158E-11
 -7.9399999E-04    6.2131203E-11
 -7.9349999E-04    7.1802321E-11
 -7.9299998E-04    7.3420214E-11
 -7.9249998E-04    6.5543779E-11
 -7.9199998E-04    5.0377043E-11
 -7.9149997E-04    2.9411976E-11
 -7.9100003E-04    3.0046083E-12
 -7.9050002E-04   -2.6038885E-11
 -7.9000002E-04   -5.5997925E-11
 -7.8950002E-04   -8.3329094E-11
 -7.8900001E-04   -1.0650652E-10
 -7.8850001E-04   -1.2385173E-10
 -7.8800000E-04   -1.3366933E-10
 -7.8750000E-04   -1.3473858E-10
 -7.8700000E-04   -1.2539800E-10
 -7.8649999E-04   -1.0666482E-10
 -7.8599999E-04   -8.0980438E-11
 -7.8549999E-04   -4.9023008E-11
 -7.8499998E-04   -1.3420424E-11
 -7.8449998E-04    1.9249109E-11
 -7.8399997E-04    5.0202061E-11
 -7.8350003E-04    7.8900129E-11
 -7.8300002E-04    1.0617408E-10
 -7.8250002E-04    1.2744630E-10
 -7.8200002E-04    1.4044491E-10
 -7.8150001E-04    1.4381357E-10
 -7.8100001E-04    1.3958677E-10
 -7.8050001E-04    1.2410244E-10
 -7.8000000E-04    9.7869157E-11
 -7.7950000E-04    6.4752488E-11
 -7.7899999E-04    2.5905311E-11
 -7.7849999E-04   -1.7163476E-11
 -7.7799999E-04   -6.1940425E-11
 -7.7749998E-04   -1.0341134E-10
 -7.7699998E-04   -1.4030466E-10
 -7.7649998E-04   -1.6722897E-10
 -7.7599997E-04   -1.8303137E-10
 -7.7550003E-04   -1.8642336E-10
 -7.7500002E-04   -1.7801527E-10
 -7.7450002E-04   -1.5855309E-10
 -7.7400001E-04   -1.2573104E-10
 -7.7350001E-04   -8.4906610E-11
 -7.7300001E-04   -3.5028647E-11
 -7.7250000E-04    2.0749388E-11
 -7.7200000E-04    8.7140746E-11
 -7.7150000E-04    1.5360738E-10
 -7.7099999E-04    2.1232599E-10
 -7.7049999E-04    2.5948188E-10
 -7.6999998E-04    2.9002276E-10
 -7.6949998E-04    3.0374514E-10
 -7.6899998E-04    2.9759728E-10
 -7.6849997E-04    2.7035843E-10
 -7.6800003E-04    2.2609764E-10
 -7.6750002E-04    1.6630683E-10
 -7.6700002E-04    9.5258440E-11
 -7.6650002E-04    1.8513439E-11
 -7.6600001E-04   -5.7621248E-11
 -7.6550001E-04   -1.3124674E-10
 -7.6500000E-04   -1.9533980E-10
 -7.6450000E-04   -2.4427588E-10
 -7.6400000E-04   -2.7140895E-10
 -7.6349999E-04   -2.7558616E-10
 -7.6299999E-04   -2.5711264E-10
 -7.6249999E-04   -2.2059995E-10
 -7.6199998E-04   -1.6408140E-10
 -7.6149998E-04   -9.3999510E-11
 -7.6099997E-04   -1.2727868E-11
 -7.6050003E-04    7.3358784E-11
 -7.6000002E-04    1.6073397E-10
 -7.5950002E-04    2.5461960E-10
 -7.5900002E-04    3.5382891E-10
 -7.5850001E-04    4.4359483E-10
 -7.5800001E-04    5.1603788E-10
 -7.5750001E-04    5.6679667E-10
 -7.5700000E-04    5.8995414E-10
 -7.5650000E-04    5.8574762E-10
 -7.5599999E-04    5.5265126E-10
 -7.5549999E-04    4.9100418E-10
 -7.5499999E-04    4.0670628E-10
 -7.5449998E-04    3.0077485E-10
 -7.5399998E-04    1.7775362E-10
 -7.5349997E-04    4.7611547E-11
 -7.5299997E-04   -8.8091562E-11
 -7.5250003E-04   -2.2793159E-10
 -7.5200002E-04   -3.6244810E-10
 -7.5150002E-04   -4.8455423E-10
 -7.5100001E-04   -5.7209099E-10
 -7.5050001E-04   -6.2913152E-10
 -7.5000001E-04   -6.3903949E-10
 -7.4950000E-04   -6.0939354E-10
 -7.4900000E-04   -5.3441213E-10
 -7.4850000E-04   -4.1650275E-10
 -7.4799999E-04   -2.6251487E-10
 -7.4749999E-04   -7.3465713E-11
 -7.4699998E-04    1.3531816E-10
 -7.4649998E-04    3.4959530E-10
 -7.4599998E-04    5.6855193E-10