 -1.2000001E-03    1.0000000E-24
 -1.1995001E-03    1.0000000E-24
 -1.1990000E-03    1.0000000E-24
 -1.1985000E-03    1.0000000E-24
 -1.1980000E-03    1.0000000E-24
 -1.1975000E-03    1.0000000E-24
 -1.1970000E-03    1.0000000E-24
 -1.1965000E-03    1.0000000E-24
 -1.1960000E-03    1.0000001E-24
 -1.1955000E-03    1.0000001E-24
 -1.1950000E-03    1.0000001E-24
 -1.1945000E-03    1.0000001E-24
 -1.1940000E-03    1.0000001E-24
 -1.1935000E-03    1.0000001E-24
 -1.1930000E-03    1.0000001E-24
 -1.1925000E-03    1.0000001E-24
 -1.1920000E-03    1.0000001E-24
 -1.1915000E-03    1.0000001E-24
 -1.1910000E-03    1.0000001E-24
 -1.1905000E-03    1.0000001E-24
 -1.1900000E-03    1.0000001E-24
 -1.1895000E-03    1.0000001E-24
 -1.1890000E-03    1.0000001E-24
 -1.1885000E-03    1.0000001E-24
 -1.1880000E-03    1.0000001E-24
 -1.1875000E-03    1.0000001E-24
 -1.1870000E-03    1.0000002E-24
 -1.1865000E-03    1.0000002E-24
 -1.1860000E-03    1.0000002E-24
 -1.1854999E-03    1.0000002E-24
 -1.1849999E-03    1.0000002E-24
 -1.1845001E-03    1.0000002E-24
 -1.1840001E-03    1.0000002E-24
 -1.1835000E-03    1.0000002E-24
 -1.1830000E-03    1.0000002E-24
 -1.1825000E-03    1.0000002E-24
 -1.1820000E-03    1.0000002E-24
 -1.1815000E-03    1.0000001E-24
 -1.1810000E-03    1.0000001E-24
 -1.1805000E-03    1.0000001E-24
 -1.1800000E-03    1.0000001E-24
 -1.1795000E-03    1.0000001E-24
 -1.1790000E-03    1.0000001E-24
 -1.1785000E-03    1.0000001E-24
 -1.1780000E-03    1.0000001E-24
 -1.1775000E-03    1.0000001E-24
 -1.1770000E-03    1.0000001E-24
 -1.1765000E-03    1.0000001E-24
 -1.1760000E-03    1.0000001E-24
 -1.1755000E-03    1.0000001E-24
 -1.1750000E-03    1.0000001E-24
 -1.1745000E-03    1.0000001E-24
 -1.1740000E-03    1.0000001E-24
 -1.1735000E-03    1.0000001E-24
 -1.1730000E-03    1.0000001E-24
 -1.1725000E-03    1.0000001E-24
 -1.1720000E-03    1.0000001E-24
 -1.1715000E-03    1.0000001E-24
 -1.1710000E-03    1.0000001E-24
 -1.1704999E-03    1.0000001E-24
 -1.1699999E-03    1.0000001E-24
 -1.1695001E-03    1.0000001E-24
 -1.1690001E-03    1.0000001E-24
 -1.1685000E-03    1.0000001E-24
 -1.1680000E-03    1.0000001E-24
 -1.1675000E-03    1.0000001E-24
 -1.1670000E-03    1.0000001E-24
 -1.1665000E-03    1.0000001E-24
 -1.1660000E-03    1.0000001E-24
 -1.1655000E-03    1.0000001E-24
 -1.1650000E-03    1.0000001E-24
 -1.1645000E-03    1.0000001E-24
 -1.1640000E-03    1.0000001E-24
 -1.1635000E-03    1.0000001E-24
 -1.1630000E-03    1.0000001E-24
 -1.1625000E-03    1.0000001E-24
 -1.1620000E-03    1.0000001E-24
 -1.1615000E-03    1.0000001E-24
 -1.1610000E-03    1.0000002E-24
 -1.1605000E-03    1.0000003E-24
 -1.1600000E-03    1.0000003E-24
 -1.1595000E-03    1.0000003E-24
 -1.1590000E-03    1.0000003E-24
 -1.1585000E-03    1.0000003E-24
 -1.1580000E-03    1.0000003E-24
 -1.1575000E-03    1.0000003E-24
 -1.1570000E-03    1.0000003E-24
 -1.1565000E-03    1.0000003E-24
 -1.1560000E-03    1.0000003E-24
 -1.1555000E-03    1.0000003E-24
 -1.1549999E-03    1.0000003E-24
 -1.1544999E-03    1.0000003E-24
 -1.1540001E-03    1.0000002E-24
 -1.1535001E-03    1.0000001E-24
 -1.1530000E-03    1.0000000E-24
 -1.1525000E-03    1.0000000E-24
 -1.1520000E-03    1.0000000E-24
 -1.1515000E-03    1.0000000E-24
 -1.1510000E-03    1.0000000E-24
 -1.1505000E-03    1.0000000E-24
 -1.1500000E-03    1.0000000E-24
 -1.1495000E-03    1.0000000E-24
 -1.1490000E-03    1.0000000E-24
 -1.1485000E-03    1.0000000E-24
 -1.1480000E-03    1.0000000E-24
 -1.1475000E-03    1.0000000E-24
 -1.1470000E-03    1.0000000E-24
 -1.1465000E-03    1.0000000E-24
 -1.1460000E-03    1.0000000E-24
 -1.1455000E-03    1.0000000E-24
 -1.1450000E-03    1.0000000E-24
 -1.1445000E-03    1.0000000E-24
 -1.1440000E-03    1.0000000E-24
 -1.1435000E-03    9.9999992E-25
 -1.1430000E-03    9.9999982E-25
 -1.1425000E-03    9.9999972E-25
 -1.1420000E-03    9.9999963E-25
 -1.1415000E-03    9.9999963E-25
 -1.1410000E-03    9.9999963E-25
 -1.1405000E-03    9.9999963E-25
 -1.1399999E-03    9.9999963E-25
 -1.1394999E-03    9.9999972E-25
 -1.1390001E-03    9.9999982E-25
 -1.1385001E-03    9.9999992E-25
 -1.1380001E-03    1.0000000E-24
 -1.1375000E-03    1.0000001E-24
 -1.1370000E-03    1.0000002E-24
 -1.1365000E-03    1.0000003E-24
 -1.1360000E-03    1.0000004E-24
 -1.1355000E-03    1.0000005E-24
 -1.1350000E-03    1.0000006E-24
 -1.1345000E-03    1.0000007E-24
 -1.1340000E-03    1.0000008E-24
 -1.1335000E-03    1.0000009E-24
 -1.1330000E-03    1.0000010E-24
 -1.1325000E-03    1.0000010E-24
 -1.1320000E-03    1.0000010E-24
 -1.1315000E-03    1.0000010E-24
 -1.1310000E-03    1.0000010E-24
 -1.1305000E-03    1.0000009E-24
 -1.1300000E-03    1.0000008E-24
 -1.1295000E-03    1.0000006E-24
 -1.1290000E-03    1.0000004E-24
 -1.1285000E-03    1.0000002E-24
 -1.1280000E-03    1.0000000E-24
 -1.1275000E-03    9.9999982E-25
 -1.1270000E-03    9.9999963E-25
 -1.1265000E-03    9.9999943E-25
 -1.1260000E-03    9.9999933E-25
 -1.1255000E-03    9.9999923E-25
 -1.1250000E-03    9.9999923E-25
 -1.1244999E-03    9.9999923E-25
 -1.1239999E-03    9.9999933E-25
 -1.1235001E-03    9.9999943E-25
 -1.1230001E-03    9.9999953E-25
 -1.1225000E-03    9.9999963E-25
 -1.1220000E-03    9.9999972E-25
 -1.1215000E-03    9.9999982E-25
 -1.1210000E-03    9.9999992E-25
 -1.1205000E-03    1.0000000E-24
 -1.1200000E-03    1.0000001E-24
 -1.1195000E-03    1.0000001E-24
 -1.1190000E-03    1.0000001E-24
 -1.1185000E-03    1.0000000E-24
 -1.1180000E-03    9.9999992E-25
 -1.1175000E-03    9.9999982E-25
 -1.1170000E-03    9.9999972E-25
 -1.1165000E-03    9.9999963E-25
 -1.1160000E-03    9.9999953E-25
 -1.1155000E-03    9.9999953E-25
 -1.1150000E-03    9.9999953E-25
 -1.1145000E-03    9.9999963E-25
 -1.1140000E-03    9.9999992E-25
 -1.1135000E-03    1.0000003E-24
 -1.1130000E-03    1.0000006E-24
 -1.1125000E-03    1.0000009E-24
 -1.1120000E-03    1.0000011E-24
 -1.1115000E-03    1.0000011E-24
 -1.1110000E-03    1.0000011E-24
 -1.1105000E-03    1.0000008E-24
 -1.1100000E-03    1.0000002E-24
 -1.1094999E-03    9.9999943E-25
 -1.1089999E-03    9.9999824E-25
 -1.1084999E-03    9.9999696E-25
 -1.1080001E-03    9.9999598E-25
 -1.1075001E-03    9.9999529E-25
 -1.1070000E-03    9.9999479E-25
 -1.1065000E-03    9.9999509E-25
 -1.1060000E-03    9.9999657E-25
 -1.1055000E-03    9.9999893E-25
 -1.1050000E-03    9.9999963E-25
 -1.1045000E-03    1.0000001E-24
 -1.1040000E-03    9.9999972E-25
 -1.1035000E-03    9.9999913E-25
 -1.1030000E-03    9.9999696E-25
 -1.1025000E-03    9.9999223E-25
 -1.1020000E-03    9.9999253E-25
 -1.1015000E-03    9.9999371E-25
 -1.1010000E-03    9.9999775E-25
 -1.1005000E-03    1.0000005E-24
 -1.1000000E-03    9.9998907E-25
 -1.0995000E-03    9.9997113E-25
 -1.0990000E-03    9.9994845E-25
 -1.0985000E-03    9.9994835E-25
 -1.0980000E-03    9.9996422E-25
 -1.0975000E-03    1.0000008E-24
 -1.0970000E-03    1.0000525E-24
 -1.0965000E-03    1.0001004E-24
 -1.0960000E-03    1.0001944E-24
 -1.0955000E-03    1.0002875E-24
 -1.0950000E-03    1.0003765E-24
 -1.0945000E-03    1.0004350E-24
 -1.0939999E-03    1.0004398E-24
 -1.0934999E-03    1.0004428E-24
 -1.0930001E-03    1.0004890E-24
 -1.0925001E-03    1.0005164E-24
 -1.0920000E-03    1.0005853E-24
 -1.0915000E-03    1.0005826E-24
 -1.0910000E-03    1.0007229E-24
 -1.0905000E-03    1.0009913E-24
 -1.0900000E-03    1.0010112E-24
 -1.0895000E-03    1.0008504E-24
 -1.0890000E-03    1.0003885E-24
 -1.0885000E-03    9.9952089E-25
 -1.0880000E-03    9.9890360E-25
 -1.0875000E-03    9.9816572E-25
 -1.0870000E-03    9.9712679E-25
 -1.0865000E-03    9.9626851E-25
 -1.0860000E-03    9.9503375E-25
 -1.0855000E-03    9.9340751E-25
 -1.0850000E-03    9.9256422E-25
 -1.0845000E-03    9.9181135E-25
 -1.0840000E-03    9.9069698E-25
 -1.0835000E-03    9.8958272E-25
 -1.0830000E-03    9.8953755E-25
 -1.0825000E-03    9.9011747E-25
 -1.0820000E-03    9.9117927E-25
 -1.0815000E-03    9.9395784E-25
 -1.0810000E-03    9.9956753E-25
 -1.0805000E-03    1.0087914E-24
 -1.0800000E-03    1.0200633E-24
 -1.0795000E-03    1.0314557E-24
 -1.0790000E-03    1.0435708E-24
 -1.0784999E-03    1.0571316E-24
 -1.0779999E-03    1.0678008E-24
 -1.0775001E-03    1.0764221E-24
 -1.0770001E-03    1.0815496E-24
 -1.0765000E-03    1.0791476E-24
 -1.0760000E-03    1.0765949E-24
 -1.0755000E-03    1.0697651E-24
 -1.0750000E-03    1.0510089E-24
 -1.0745000E-03    1.0197238E-24
 -1.0740000E-03    9.8651109E-25
 -1.0735000E-03    9.4799811E-25
 -1.0730000E-03    9.1382199E-25
 -1.0725000E-03    8.8398294E-25
 -1.0720000E-03    8.6281790E-25
 -1.0715000E-03    8.4550822E-25
 -1.0710000E-03    8.3879994E-25
 -1.0705000E-03    8.5690874E-25
 -1.0700000E-03    9.0296618E-25
 -1.0695000E-03    9.6936056E-25
 -1.0690000E-03    1.0463570E-24
 -1.0685000E-03    1.1416650E-24
 -1.0680000E-03    1.2408272E-24
 -1.0675000E-03    1.3351706E-24
 -1.0670000E-03    1.4208388E-24
 -1.0665000E-03    1.5007239E-24
 -1.0660000E-03    1.5613334E-24
 -1.0655000E-03    1.6045953E-24
 -1.0650000E-03    1.6401467E-24
 -1.0645000E-03    1.7479799E-24
 -1.0640000E-03    1.8268999E-24
 -1.0634999E-03    1.8614883E-24
 -1.0629999E-03    1.8799352E-24
 -1.0625001E-03    1.9350050E-24
 -1.0620001E-03    1.9457404E-24
 -1.0615001E-03    1.8870845E-24
 -1.0610000E-03    1.8361408E-24
 -1.0605000E-03    1.7774872E-24
 -1.0600000E-03    1.5453586E-24
 -1.0595000E-03    1.2284225E-24
 -1.0590000E-03    8.5365942E-25
 -1.0585000E-03    5.4828535E-25
 -1.0580000E-03    2.7760301E-25
 -1.0575000E-03   -2.9183729E-25
 -1.0570000E-03   -7.8417482E-25
 -1.0565000E-03   -9.4112398E-25
 -1.0560000E-03   -1.0749406E-24
 -1.0555000E-03   -1.1547805E-24
 -1.0550000E-03   -1.4659160E-24
 -1.0545000E-03   -1.2373512E-24
 -1.0540000E-03   -9.7794376E-25
 -1.0535000E-03   -6.5685973E-25
 -1.0530000E-03    8.0569329E-26
 -1.0525000E-03    7.7174519E-25
 -1.0520000E-03    1.7250696E-24
 -1.0515000E-03    1.6683744E-24
 -1.0510000E-03    1.1683311E-24
 -1.0505000E-03    2.9818577E-25
 -1.0500000E-03   -7.1846365E-25
 -1.0495000E-03   -2.1514623E-24
 -1.0490000E-03   -4.2937640E-24
 -1.0485000E-03   -5.4492093E-24
 -1.0479999E-03   -6.5121383E-24
 -1.0474999E-03   -7.2358409E-24
 -1.0470001E-03   -7.0960342E-24
 -1.0465001E-03   -5.4450785E-24
 -1.0460000E-03   -3.5782324E-24
 -1.0455000E-03   -1.7113945E-24
 -1.0450000E-03    4.3297770E-25
 -1.0445000E-03    2.5995381E-24
 -1.0440000E-03    5.9534346E-24
 -1.0435000E-03    9.6774450E-24
 -1.0430000E-03    1.3278135E-23
 -1.0425000E-03    1.8852654E-23
 -1.0420000E-03    2.5537502E-23
 -1.0415000E-03    3.2962607E-23
 -1.0410000E-03    3.9771035E-23
 -1.0405000E-03    4.4605764E-23
 -1.0400000E-03    4.8576950E-23
 -1.0395000E-03    4.8353882E-23
 -1.0390000E-03    4.6681257E-23
 -1.0385000E-03    4.0388366E-23
 -1.0380000E-03    2.9962780E-23
 -1.0375000E-03    1.5096023E-23
 -1.0370000E-03    1.9560560E-24
 -1.0365000E-03   -1.6118501E-23
 -1.0360000E-03   -3.3699762E-23
 -1.0355000E-03   -4.8813981E-23
 -1.0350000E-03   -6.8369281E-23
 -1.0345000E-03   -7.0407716E-23
 -1.0340000E-03   -6.2330462E-23
 -1.0335000E-03   -4.6728132E-23
 -1.0329999E-03   -2.6931396E-23
 -1.0324999E-03   -6.0860374E-24
 -1.0319999E-03    1.0564996E-23
 -1.0315001E-03    4.8927722E-23
 -1.0310001E-03    1.0801516E-22
 -1.0305000E-03    1.7697196E-22
 -1.0300000E-03    2.6270578E-22
 -1.0295000E-03    3.3363646E-22
 -1.0290000E-03    3.9765908E-22
 -1.0285000E-03    4.5970830E-22
 -1.0280000E-03    4.8820463E-22
 -1.0275000E-03    5.2163613E-22
 -1.0270000E-03    5.2447527E-22
 -1.0265000E-03    5.1547347E-22
 -1.0260000E-03    4.5910104E-22
 -1.0255000E-03    3.5141065E-22
 -1.0250000E-03    1.7266503E-22
 -1.0245000E-03    2.5498400E-23
 -1.0240000E-03   -1.4535413E-22
 -1.0235000E-03   -3.1423503E-22
 -1.0230000E-03   -5.7786048E-22
 -1.0225000E-03   -9.6780768E-22
 -1.0220000E-03   -1.4564455E-21
 -1.0215000E-03   -1.8725541E-21
 -1.0210000E-03   -2.3148189E-21
 -1.0205000E-03   -2.6761635E-21
 -1.0200000E-03   -2.7848720E-21
 -1.0195000E-03   -2.8264725E-21
 -1.0190000E-03   -2.5443801E-21
 -1.0185000E-03   -2.0412216E-21
 -1.0180000E-03   -1.0327762E-21
 -1.0174999E-03    3.1516493E-22
 -1.0169999E-03    1.9236618E-21
 -1.0165001E-03    3.5874395E-21
 -1.0160001E-03    4.9906981E-21
 -1.0155000E-03    6.3465998E-21
 -1.0150000E-03    7.5248709E-21
 -1.0145000E-03    8.3952507E-21
 -1.0140000E-03    8.9182478E-21
 -1.0135000E-03    9.1570332E-21
 -1.0130000E-03    9.6800294E-21
 -1.0125000E-03    9.6029901E-21
 -1.0120000E-03    8.7048328E-21
 -1.0115000E-03    6.6381862E-21
 -1.0110000E-03    3.6240956E-21
 -1.0105000E-03    2.5729894E-23
 -1.0100000E-03   -5.4043118E-21
 -1.0095000E-03   -1.2171599E-20
 -1.0090000E-03   -1.9775774E-20
 -1.0085000E-03   -2.7127330E-20
 -1.0080000E-03   -3.3341957E-20
 -1.0075000E-03   -3.8356501E-20
 -1.0070000E-03   -4.0591914E-20
 -1.0065000E-03   -3.9163994E-20
 -1.0060000E-03   -3.2241083E-20
 -1.0055000E-03   -2.0012651E-20
 -1.0050000E-03   -5.2577409E-21
 -1.0045000E-03    1.0128819E-20
 -1.0040000E-03    2.7694356E-20
 -1.0035000E-03    4.3387843E-20
 -1.0030000E-03    5.3491667E-20
 -1.0025000E-03    5.8289996E-20
 -1.0019999E-03    5.5130108E-20
 -1.0014999E-03    4.5148843E-20
 -1.0010001E-03    2.7840880E-20
 -1.0005001E-03    3.2062514E-21
 -1.0000000E-03   -2.8249872E-20
 -9.9950004E-04   -6.3748445E-20
 -9.9900004E-04   -1.0278408E-19
 -9.9850004E-04   -1.4043032E-19
 -9.9800003E-04   -1.7011851E-19
 -9.9750003E-04   -1.8973653E-19
 -9.9700002E-04   -1.8990115E-19
 -9.9650002E-04   -1.7869671E-19
 -9.9600002E-04   -1.5991288E-19
 -9.9550001E-04   -1.1738050E-19
 -9.9500001E-04   -6.1205019E-20
 -9.9450001E-04    1.6697721E-20
 -9.9400000E-04    1.0015879E-19
 -9.9350000E-04    1.9625222E-19
 -9.9299999E-04    2.9891474E-19
 -9.9249999E-04    3.9601949E-19
 -9.9199999E-04    4.8731366E-19
 -9.9149998E-04    5.7611243E-19
 -9.9099998E-04    6.1968809E-19
 -9.9049998E-04    6.3395660E-19
 -9.8999997E-04    6.0982278E-19
 -9.8949997E-04    5.3516001E-19
 -9.8899996E-04    3.9986278E-19
 -9.8849996E-04    2.0696257E-19
 -9.8799996E-04   -2.0298006E-20
 -9.8749995E-04   -2.5059067E-19
 -9.8699995E-04   -4.9199958E-19
 -9.8649994E-04   -6.7378529E-19
 -9.8600006E-04   -7.7674539E-19
 -9.8550005E-04   -7.6260572E-19
 -9.8500005E-04   -6.8783030E-19
 -9.8450005E-04   -5.2614544E-19
 -9.8400004E-04   -2.7148675E-19
 -9.8350004E-04    1.3490936E-20
 -9.8300003E-04    3.4293611E-19
 -9.8250003E-04    7.2897385E-19
 -9.8200003E-04    1.0867162E-18
 -9.8150002E-04    1.4040361E-18
 -9.8100002E-04    1.5920029E-18
 -9.8050002E-04    1.5960457E-18
 -9.8000001E-04    1.4959989E-18
 -9.7950001E-04    1.1236024E-18
 -9.7900000E-04    6.3801971E-19
 -9.7850000E-04    1.0190355E-19
 -9.7800000E-04   -4.4634201E-19
 -9.7749999E-04   -1.1522386E-18
 -9.7699999E-04   -1.8500540E-18
 -9.7649998E-04   -2.5397871E-18
 -9.7599998E-04   -3.0678305E-18
 -9.7549998E-04   -3.4422685E-18
 -9.7499997E-04   -3.4529021E-18
 -9.7450003E-04   -3.1846170E-18
 -9.7400002E-04   -2.5484798E-18
 -9.7350002E-04   -1.6316533E-18
 -9.7300002E-04   -4.0760708E-19
 -9.7250001E-04    1.2287586E-18
 -9.7200001E-04    3.0914982E-18
 -9.7150001E-04    5.0027544E-18
 -9.7100000E-04    6.4612868E-18
 -9.7050000E-04    7.5964421E-18
 -9.6999999E-04    8.4890643E-18
 -9.6949999E-04    8.8966129E-18
 -9.6899999E-04    8.6088864E-18
 -9.6849998E-04    7.6743857E-18
 -9.6799998E-04    6.1860793E-18
 -9.6749997E-04    4.0393690E-18
 -9.6700003E-04    1.0437656E-18
 -9.6650003E-04   -2.4692642E-18
 -9.6600002E-04   -5.8044591E-18
 -9.6550002E-04   -8.3150478E-18
 -9.6500001E-04   -1.0243557E-17
 -9.6450001E-04   -1.1557636E-17
 -9.6400001E-04   -1.2160268E-17
 -9.6350000E-04   -1.1954432E-17
 -9.6300000E-04   -1.1150321E-17
 -9.6249999E-04   -9.7155936E-18
 -9.6199999E-04   -7.4481295E-18
 -9.6149999E-04   -4.0366691E-18
 -9.6099998E-04    8.6267054E-20
 -9.6049998E-04    4.7428117E-18
 -9.5999998E-04    9.9814735E-18
 -9.5949997E-04    1.5963929E-17
 -9.5900003E-04    2.1914058E-17
 -9.5850002E-04    2.6085602E-17
 -9.5800002E-04    2.8898934E-17
 -9.5750001E-04    3.0903779E-17
 -9.5700001E-04    2.9804131E-17
 -9.5650001E-04    2.5955692E-17
 -9.5600000E-04    1.9908188E-17
 -9.5550000E-04    1.0978485E-17
 -9.5500000E-04   -3.2812955E-19
 -9.5449999E-04   -1.3154692E-17
 -9.5399999E-04   -2.6304706E-17
 -9.5349998E-04   -3.9325397E-17
 -9.5299998E-04   -5.0147130E-17
 -9.5249998E-04   -5.8252448E-17
 -9.5199997E-04   -6.3641351E-17
 -9.5150003E-04   -6.4438210E-17
 -9.5100002E-04   -5.9931545E-17
 -9.5050002E-04   -5.0088986E-17
 -9.5000002E-04   -3.5621987E-17
 -9.4950001E-04   -1.5785773E-17
 -9.4900001E-04    7.6400825E-18
 -9.4850000E-04    3.3782423E-17
 -9.4800000E-04    6.0118918E-17
 -9.4750000E-04    8.3092377E-17
 -9.4699999E-04    1.0451367E-16
 -9.4649999E-04    1.2218377E-16
 -9.4599999E-04    1.3662005E-16
 -9.4549998E-04    1.4549412E-16
 -9.4499998E-04    1.4570146E-16
 -9.4449997E-04    1.3711266E-16
 -9.4400003E-04    1.1979239E-16
 -9.4350002E-04    9.2220679E-17
 -9.4300002E-04    5.8148726E-17
 -9.4250002E-04    1.6444667E-17
 -9.4200001E-04   -2.9269584E-17
 -9.4150001E-04   -7.9899453E-17
 -9.4100001E-04   -1.2910658E-16
 -9.4050000E-04   -1.7171679E-16
 -9.4000000E-04   -2.0695381E-16
 -9.3949999E-04   -2.3029021E-16
 -9.3899999E-04   -2.3525827E-16
 -9.3849999E-04   -2.2198727E-16
 -9.3799998E-04   -1.8847215E-16
 -9.3749998E-04   -1.3768789E-16
 -9.3699998E-04   -6.7831669E-17
 -9.3649997E-04    1.3893187E-17
 -9.3600003E-04    1.0738954E-16
 -9.3550002E-04    2.0489620E-16
 -9.3500002E-04    2.9296040E-16
 -9.3450001E-04    3.5994025E-16
 -9.3400001E-04    4.0454198E-16
 -9.3350001E-04    4.2534241E-16
 -9.3300000E-04    4.1884893E-16
 -9.3250000E-04    3.8260359E-16
 -9.3200000E-04    3.1337252E-16
 -9.3149999E-04    2.1244915E-16
 -9.3099999E-04    7.9833418E-17
 -9.3049998E-04   -8.0917388E-17
 -9.2999998E-04   -2.6243013E-16
 -9.2949998E-04   -4.6253791E-16
 -9.2899997E-04   -6.5326818E-16
 -9.2850003E-04   -8.2032716E-16
 -9.2800002E-04   -9.3939628E-16
 -9.2750002E-04   -9.9249508E-16
 -9.2700002E-04   -9.8841937E-16
 -9.2650001E-04   -9.1061166E-16
 -9.2600001E-04   -7.6088244E-16
 -9.2550000E-04   -5.4026641E-16
 -9.2500000E-04   -2.5600726E-16
 -9.2450000E-04    8.1546780E-17
 -9.2399999E-04    4.4626624E-16
 -9.2349999E-04    8.1124575E-16
 -9.2299999E-04    1.1547539E-15
 -9.2249998E-04    1.4590687E-15
 -9.2199998E-04    1.7048190E-15
 -9.2149997E-04    1.8512261E-15
 -9.2100003E-04    1.8731949E-15
 -9.2050002E-04    1.7896106E-15
 -9.2000002E-04    1.5833981E-15
 -9.1950002E-04    1.2488654E-15
 -9.1900001E-04    7.9325610E-16
 -9.1850001E-04    2.2588357E-16
 -9.1800001E-04   -3.9737190E-16
 -9.1750000E-04   -1.0651269E-15
 -9.1700000E-04   -1.7401267E-15
 -9.1649999E-04   -2.3437251E-15
 -9.1599999E-04   -2.8803194E-15
 -9.1549999E-04   -3.3004954E-15
 -9.1499998E-04   -3.5225017E-15
 -9.1449998E-04   -3.4868361E-15
 -9.1399997E-04   -3.1945327E-15
 -9.1349997E-04   -2.6580082E-15
 -9.1300003E-04   -1.8793315E-15
 -9.1250002E-04   -9.1438308E-16
 -9.1200002E-04    1.8716637E-16
 -9.1150001E-04    1.3425306E-15
 -9.1100001E-04    2.4772012E-15
 -9.1050001E-04    3.5114960E-15
 -9.1000000E-04    4.3729766E-15
 -9.0950000E-04    4.9436722E-15
 -9.0899999E-04    5.1904671E-15
 -9.0849999E-04    5.0843847E-15
 -9.0799999E-04    4.5457425E-15
 -9.0749998E-04    3.6531853E-15
 -9.0699998E-04    2.3384159E-15
 -9.0649998E-04    7.3388893E-16
 -9.0599997E-04   -1.0237981E-15
 -9.0550003E-04   -2.8311621E-15
 -9.0500002E-04   -4.5723033E-15
 -9.0450002E-04   -6.2679163E-15
 -9.0400001E-04   -7.6861989E-15
 -9.0350001E-04   -8.7329817E-15
 -9.0300001E-04   -9.3658339E-15
 -9.0250000E-04   -9.3736495E-15
 -9.0200000E-04   -8.6695016E-15
 -9.0150000E-04   -7.3858444E-15
 -9.0099999E-04   -5.5061207E-15
 -9.0049999E-04   -3.2455702E-15
 -8.9999998E-04   -6.7041975E-16
 -8.9949998E-04    1.9792513E-15
 -8.9899998E-04    4.5461486E-15
 -8.9849997E-04    6.8605594E-15
 -8.9800003E-04    8.7983006E-15
 -8.9750002E-04    1.0183449E-14
 -8.9700002E-04    1.0878370E-14
 -8.9650002E-04    1.0819935E-14
 -8.9600001E-04    9.9791654E-15
 -8.9550001E-04    8.2525742E-15
 -8.9500000E-04    6.0458048E-15
 -8.9450000E-04    3.1850080E-15
 -8.9400000E-04   -2.5531098E-16
 -8.9349999E-04   -4.1178574E-15
 -8.9299999E-04   -8.1873883E-15
 -8.9249999E-04   -1.2132758E-14
 -8.9199998E-04   -1.5647656E-14
 -8.9149998E-04   -1.8541668E-14
 -8.9099997E-04   -2.0534965E-14
 -8.9050003E-04   -2.1373396E-14
 -8.9000002E-04   -2.1069369E-14
 -8.8950002E-04   -1.9755331E-14
 -8.8900002E-04   -1.7497509E-14
 -8.8850001E-04   -1.4047543E-14
 -8.8800001E-04   -9.5875558E-15
 -8.8750001E-04   -3.9188610E-15
 -8.8700000E-04    2.5942766E-15
 -8.8650000E-04    9.5544851E-15
 -8.8599999E-04    1.6539550E-14
 -8.8549999E-04    2.3011356E-14
 -8.8499999E-04    2.8442133E-14
 -8.8449998E-04    3.2482097E-14
 -8.8399998E-04    3.4824936E-14
 -8.8349998E-04    3.5230557E-14
 -8.8299997E-04    3.3533384E-14
 -8.8250003E-04    2.9418813E-14
 -8.8200002E-04    2.2704730E-14
 -8.8150002E-04    1.3672603E-14
 -8.8100001E-04    2.3555440E-15
 -8.8050001E-04   -1.0302686E-14
 -8.8000001E-04   -2.3904705E-14
 -8.7950000E-04   -3.7506744E-14
 -8.7900000E-04   -5.0059488E-14
 -8.7850000E-04   -6.0149348E-14
 -8.7799999E-04   -6.6720785E-14
 -8.7749999E-04   -6.8672756E-14
 -8.7699998E-04   -6.6121127E-14
 -8.7649998E-04   -5.8469837E-14
 -8.7599998E-04   -4.5089705E-14
 -8.7549997E-04   -2.7239065E-14
 -8.7500003E-04   -6.0769180E-15
 -8.7450002E-04    1.7568869E-14
 -8.7400002E-04    4.1595545E-14
 -8.7350002E-04    6.4844072E-14
 -8.7300001E-04    8.5319298E-14
 -8.7250001E-04    1.0151451E-13
 -8.7200000E-04    1.1176566E-13
 -8.7150000E-04    1.1576642E-13
 -8.7100000E-04    1.1251505E-13
 -8.7049999E-04    1.0032272E-13
 -8.6999999E-04    8.1010692E-14
 -8.6949999E-04    5.5373698E-14
 -8.6899998E-04    2.4868772E-14
 -8.6849998E-04   -8.8483671E-15
 -8.6799997E-04   -4.3790844E-14
 -8.6750003E-04   -7.8220118E-14
 -8.6700002E-04   -1.0952011E-13
 -8.6650002E-04   -1.3515754E-13
 -8.6600002E-04   -1.5319519E-13
 -8.6550001E-04   -1.6123531E-13
 -8.6500001E-04   -1.5867868E-13
 -8.6450001E-04   -1.4508651E-13
 -8.6400000E-04   -1.2096377E-13
 -8.6350000E-04   -8.6277319E-14
 -8.6299999E-04   -4.2053736E-14
 -8.6249999E-04    9.4220913E-15
 -8.6199999E-04    6.5004249E-14
 -8.6149998E-04    1.2088452E-13
 -8.6099998E-04    1.7216198E-13
 -8.6049997E-04    2.1486281E-13
 -8.5999997E-04    2.4302638E-13
 -8.5950003E-04    2.5459951E-13
 -8.5900002E-04    2.4471438E-13
 -8.5850002E-04    2.1534116E-13
 -8.5800001E-04    1.6622320E-13
 -8.5750001E-04    1.0007480E-13
 -8.5700001E-04    2.5622616E-14
 -8.5650000E-04   -5.3068613E-14
 -8.5600000E-04   -1.3089922E-13
 -8.5549999E-04   -2.0346492E-13
 -8.5499999E-04   -2.6351358E-13
 -8.5449999E-04   -3.0223664E-13
 -8.5399998E-04   -3.1976651E-13
 -8.5349998E-04   -3.1385124E-13
 -8.5299998E-04   -2.7978843E-13
 -8.5249997E-04   -2.2016093E-13
 -8.5200003E-04   -1.3556472E-13
 -8.5150002E-04   -3.4344479E-14
 -8.5100002E-04    7.9625447E-14
 -8.5050002E-04    2.0101358E-13
 -8.5000001E-04    3.2339569E-13
 -8.4950001E-04    4.3061193E-13
 -8.4900000E-04    5.1100595E-13
 -8.4850000E-04    5.5669640E-13
 -8.4800000E-04    5.7271657E-13
 -8.4749999E-04    5.5005891E-13
 -8.4699999E-04    4.8885581E-13
 -8.4649998E-04    3.8486852E-13
 -8.4599998E-04    2.4895832E-13
 -8.4549998E-04    8.6158382E-14
 -8.4499997E-04   -8.9027296E-14
 -8.4450003E-04   -2.7921461E-13
 -8.4400002E-04   -4.6032964E-13
 -8.4350002E-04   -6.2435842E-13
 -8.4300002E-04   -7.6295610E-13
 -8.4250001E-04   -8.5545904E-13
 -8.4200001E-04   -8.9974751E-13
 -8.4150000E-04   -8.9237748E-13
 -8.4100000E-04   -8.2805036E-13
 -8.4050000E-04   -7.1285892E-13
 -8.3999999E-04   -5.5475031E-13
 -8.3949999E-04   -3.5796309E-13
 -8.3899999E-04   -1.3084206E-13
 -8.3849998E-04    1.0979078E-13
 -8.3799998E-04    3.4080491E-13
 -8.3749997E-04    5.5095783E-13
 -8.3700003E-04    7.0826109E-13
 -8.3650002E-04    8.0913818E-13
 -8.3600002E-04    8.7902033E-13
 -8.3550002E-04    8.9168061E-13
 -8.3500001E-04    8.3175404E-13
 -8.3450001E-04    7.1195594E-13
 -8.3400001E-04    5.3599491E-13
 -8.3350000E-04    3.0784424E-13
 -8.3300000E-04    4.7902241E-14
 -8.3249999E-04   -2.3349934E-13
 -8.3199999E-04   -5.0543180E-13
 -8.3149999E-04   -7.7259694E-13
 -8.3099998E-04   -1.0145962E-12
 -8.3049998E-04   -1.2112956E-12
 -8.2999998E-04   -1.3269315E-12
 -8.2949997E-04   -1.3461385E-12
 -8.2900003E-04   -1.2811016E-12
 -8.2850002E-04   -1.1159260E-12
 -8.2800002E-04   -8.6809547E-13
 -8.2750001E-04   -5.4873592E-13
 -8.2700001E-04   -1.6155591E-13
 -8.2650001E-04    2.6006524E-13
 -8.2600000E-04    7.0526603E-13
 -8.2550000E-04    1.1578012E-12
 -8.2500000E-04    1.5945754E-12
 -8.2449999E-04    1.9804867E-12
 -8.2399999E-04    2.3038782E-12
 -8.2349998E-04    2.5319000E-12
 -8.2299998E-04    2.6221651E-12
 -8.2249998E-04    2.5471218E-12
 -8.2199997E-04    2.2876963E-12
 -8.2150003E-04    1.8724989E-12
 -8.2100002E-04    1.3073568E-12
 -8.2050002E-04    6.0551607E-13
 -8.2000002E-04   -1.8613386E-13
 -8.1950001E-04   -1.0311667E-12
 -8.1900001E-04   -1.8609693E-12
 -8.1850000E-04   -2.5863975E-12
 -8.1800000E-04   -3.1624150E-12
 -8.1750000E-04   -3.5778941E-12
 -8.1699999E-04   -3.8089909E-12
 -8.1649999E-04   -3.7900069E-12
 -8.1599999E-04   -3.5325963E-12
 -8.1549998E-04   -3.0081491E-12
 -8.1499998E-04   -2.2495135E-12
 -8.1449997E-04   -1.3133803E-12
 -8.1400003E-04   -2.5061358E-13
 -8.1350002E-04    8.8977746E-13
 -8.1300002E-04    2.0562328E-12
 -8.1250002E-04    3.1077181E-12
 -8.1200001E-04    3.9859513E-12
 -8.1150001E-04    4.6273506E-12
 -8.1100001E-04    5.0250281E-12
 -8.1050000E-04    5.1079852E-12
 -8.1000000E-04    4.8497287E-12
 -8.0949999E-04    4.2343633E-12
 -8.0899999E-04    3.2555300E-12
 -8.0849999E-04    2.0096568E-12
 -8.0799998E-04    5.3753925E-13
 -8.0749998E-04   -1.0606843E-12
 -8.0699997E-04   -2.7145456E-12
 -8.0649997E-04   -4.2938049E-12
 -8.0600003E-04   -5.6305386E-12
 -8.0550002E-04   -6.6536147E-12
 -8.0500002E-04   -7.2639533E-12
 -8.0450001E-04   -7.3804894E-12
 -8.0400001E-04   -6.8569885E-12
 -8.0350001E-04   -5.7252389E-12
 -8.0300000E-04   -4.1028600E-12
 -8.0250000E-04   -2.0068060E-12
 -8.0200000E-04    4.5907641E-13
 -8.0149999E-04    3.0574241E-12
 -8.0099999E-04    5.7463786E-12
 -8.0049998E-04    8.3367905E-12
 -7.9999998E-04    1.0613017E-11
 -7.9949998E-04    1.2390148E-11
 -7.9899997E-04    1.3400153E-11
 -7.9850003E-04    1.3611969E-11
 -7.9800002E-04    1.2944530E-11
 -7.9750002E-04    1.1463267E-11
 -7.9700002E-04    9.1199643E-12
 -7.9650001E-04    6.0889379E-12
 -7.9600001E-04    2.5831763E-12
 -7.9550000E-04   -1.2447300E-12
 -7.9500000E-04   -5.1478787E-12
 -7.9450000E-04   -8.8454617E-12
 -7.9399999E-04   -1.2056667E-11
 -7.9349999E-04   -1.4617245E-11
 -7.9299998E-04   -1.6388380E-11
 -7.9249998E-04   -1.7178798E-11
 -7.9199998E-04   -1.7058438E-11
 -7.9149997E-04   -1.5954177E-11
 -7.9100003E-04   -1.3667760E-11
 -7.9050002E-04   -1.0215712E-11
 -7.9000002E-04   -6.1140784E-12
 -7.8950002E-04   -1.5981048E-12
 -7.8900001E-04    3.1012038E-12
 -7.8850001E-04    7.6309800E-12
 -7.8800000E-04    1.1635175E-11
 -7.8750000E-04    1.4827677E-11
 -7.8700000E-04    1.6977482E-11
 -7.8649999E-04    1.7830262E-11
 -7.8599999E-04    1.7653046E-11
 -7.8549999E-04    1.6310195E-11
 -7.8499998E-04    1.3448844E-11
 -7.8449998E-04    9.5961641E-12
 -7.8399997E-04    4.7636829E-12
 -7.8350003E-04   -9.1336346E-13
 -7.8300002E-04   -6.9591880E-12
 -7.8250002E-04   -1.2932972E-11
 -7.8200002E-04   -1.8304889E-11
 -7.8150001E-04   -2.2574774E-11
 -7.8100001E-04   -2.5585790E-11
 -7.8050001E-04   -2.6761485E-11
 -7.8000000E-04   -2.6135760E-11
 -7.7950000E-04   -2.4149424E-11
 -7.7899999E-04   -2.0813065E-11
 -7.7849999E-04   -1.5991045E-11
 -7.7799999E-04   -9.9588731E-12
 -7.7749998E-04   -2.8195989E-12
 -7.7699998E-04    4.1501611E-12
 -7.7649998E-04    1.0462970E-11
 -7.7599997E-04    1.5928078E-11
 -7.7550003E-04    2.0214870E-11
 -7.7500002E-04    2.2861327E-11
 -7.7450002E-04    2.3757234E-11
 -7.7400001E-04    2.2796615E-11
 -7.7350001E-04    2.0199868E-11
 -7.7300001E-04    1.6208581E-11
 -7.7250000E-04    1.1106736E-11
 -7.7200000E-04    4.9727509E-12
 -7.7150000E-04   -1.6042173E-12
 -7.7099999E-04   -8.6241630E-12
 -7.7049999E-04   -1.5285988E-11
 -7.6999998E-04   -2.1371393E-11
 -7.6949998E-04   -2.6236104E-11
 -7.6899998E-04   -2.9964871E-11
 -7.6849997E-04   -3.2082968E-11
 -7.6800003E-04   -3.2802306E-11
 -7.6750002E-04   -3.2122870E-11
 -7.6700002E-04   -2.9654702E-11
 -7.6650002E-04   -2.5499517E-11
 -7.6600001E-04   -2.0136269E-11
 -7.6550001E-04   -1.3687879E-11
 -7.6500000E-04   -6.9289509E-12
 -7.6450000E-04    1.3520906E-13
 -7.6400000E-04    7.0849728E-12
 -7.6349999E-04    1.3873704E-11
 -7.6299999E-04    1.9365436E-11
 -7.6249999E-04    2.3729700E-11
 -7.6199998E-04    2.6873229E-11
 -7.6149998E-04    2.8194131E-11
 -7.6099997E-04    2.8065387E-11
 -7.6050003E-04    2.6249621E-11
 -7.6000002E-04    2.2712913E-11
 -7.5950002E-04    1.8269070E-11
 -7.5900002E-04    1.1290467E-11
 -7.5850001E-04    2.6884074E-12
 -7.5800001E-04   -7.2573414E-12
 -7.5750001E-04   -1.7622763E-11
 -7.5700000E-04   -2.7394821E-11
 -7.5650000E-04   -3.7344922E-11
 -7.5599999E-04   -4.5921714E-11
 -7.5549999E-04   -5.2972599E-11
 -7.5499999E-04   -5.7209001E-11
 -7.5449998E-04   -5.7969685E-11
 -7.5399998E-04   -5.5678486E-11
 -7.5349997E-04   -5.0225196E-11
 -7.5299997E-04   -4.1711530E-11
 -7.5250003E-04   -3.0387561E-11
 -7.5200002E-04   -1.7794035E-11
 -7.5150002E-04   -4.3527014E-12
 -7.5100001E-04    9.5040868E-12
 -7.5050001E-04    2.3445686E-11
 -7.5000001E-04    3.6912581E-11
 -7.4950000E-04    4.8243184E-11
 -7.4900000E-04    5.7047523E-11
 -7.4850000E-04    6.1155407E-11
 -7.4799999E-04    6.0058181E-11
 -7.4749999E-04    5.3009822E-11
 -7.4699998E-04    4.0790225E-11
 -7.4649998E-04    2.2585578E-11
 -7.4599998E-04   -7.0552125E-13