 -1.2000001E-03    1.0000000E-24
 -1.1995001E-03    1.0000000E-24
 -1.1990000E-03    1.0000000E-24
 -1.1985000E-03    1.0000000E-24
 -1.1980000E-03    1.0000000E-24
 -1.1975000E-03    1.0000000E-24
 -1.1970000E-03    1.0000000E-24
 -1.1965000E-03    1.0000000E-24
 -1.1960000E-03    1.0000000E-24
 -1.1955000E-03    1.0000001E-24
 -1.1950000E-03    1.0000002E-24
 -1.1945000E-03    1.0000002E-24
 -1.1940000E-03    1.0000002E-24
 -1.1935000E-03    1.0000002E-24
 -1.1930000E-03    1.0000002E-24
 -1.1925000E-03    1.0000002E-24
 -1.1920000E-03    1.0000002E-24
 -1.1915000E-03    1.0000002E-24
 -1.1910000E-03    1.0000002E-24
 -1.1905000E-03    1.0000002E-24
 -1.1900000E-03    1.0000002E-24
 -1.1895000E-03    1.0000002E-24
 -1.1890000E-03    1.0000002E-24
 -1.1885000E-03    1.0000002E-24
 -1.1880000E-03    1.0000002E-24
 -1.1875000E-03    1.0000002E-24
 -1.1870000E-03    1.0000002E-24
 -1.1865000E-03    1.0000002E-24
 -1.1860000E-03    1.0000002E-24
 -1.1854999E-03    1.0000002E-24
 -1.1849999E-03    1.0000001E-24
 -1.1845001E-03    1.0000000E-24
 -1.1840001E-03    1.0000000E-24
 -1.1835000E-03    1.0000000E-24
 -1.1830000E-03    1.0000000E-24
 -1.1825000E-03    1.0000000E-24
 -1.1820000E-03    1.0000000E-24
 -1.1815000E-03    1.0000000E-24
 -1.1810000E-03    1.0000000E-24
 -1.1805000E-03    1.0000000E-24
 -1.1800000E-03    1.0000000E-24
 -1.1795000E-03    1.0000001E-24
 -1.1790000E-03    1.0000002E-24
 -1.1785000E-03    1.0000003E-24
 -1.1780000E-03    1.0000003E-24
 -1.1775000E-03    1.0000003E-24
 -1.1770000E-03    1.0000003E-24
 -1.1765000E-03    1.0000003E-24
 -1.1760000E-03    1.0000003E-24
 -1.1755000E-03    1.0000003E-24
 -1.1750000E-03    1.0000002E-24
 -1.1745000E-03    1.0000001E-24
 -1.1740000E-03    1.0000000E-24
 -1.1735000E-03    9.9999992E-25
 -1.1730000E-03    9.9999992E-25
 -1.1725000E-03    9.9999992E-25
 -1.1720000E-03    9.9999992E-25
 -1.1715000E-03    9.9999992E-25
 -1.1710000E-03    9.9999992E-25
 -1.1704999E-03    9.9999992E-25
 -1.1699999E-03    9.9999992E-25
 -1.1695001E-03    9.9999992E-25
 -1.1690001E-03    1.0000000E-24
 -1.1685000E-03    1.0000001E-24
 -1.1680000E-03    1.0000002E-24
 -1.1675000E-03    1.0000003E-24
 -1.1670000E-03    1.0000004E-24
 -1.1665000E-03    1.0000004E-24
 -1.1660000E-03    1.0000004E-24
 -1.1655000E-03    1.0000004E-24
 -1.1650000E-03    1.0000004E-24
 -1.1645000E-03    1.0000004E-24
 -1.1640000E-03    1.0000004E-24
 -1.1635000E-03    1.0000004E-24
 -1.1630000E-03    1.0000003E-24
 -1.1625000E-03    1.0000002E-24
 -1.1620000E-03    1.0000001E-24
 -1.1615000E-03    1.0000001E-24
 -1.1610000E-03    1.0000001E-24
 -1.1605000E-03    1.0000001E-24
 -1.1600000E-03    1.0000001E-24
 -1.1595000E-03    1.0000001E-24
 -1.1590000E-03    1.0000001E-24
 -1.1585000E-03    1.0000001E-24
 -1.1580000E-03    1.0000001E-24
 -1.1575000E-03    1.0000002E-24
 -1.1570000E-03    1.0000003E-24
 -1.1565000E-03    1.0000004E-24
 -1.1560000E-03    1.0000004E-24
 -1.1555000E-03    1.0000004E-24
 -1.1549999E-03    1.0000004E-24
 -1.1544999E-03    1.0000004E-24
 -1.1540001E-03    1.0000004E-24
 -1.1535001E-03    1.0000004E-24
 -1.1530000E-03    1.0000003E-24
 -1.1525000E-03    1.0000002E-24
 -1.1520000E-03    1.0000001E-24
 -1.1515000E-03    1.0000000E-24
 -1.1510000E-03    1.0000000E-24
 -1.1505000E-03    1.0000000E-24
 -1.1500000E-03    1.0000000E-24
 -1.1495000E-03    1.0000000E-24
 -1.1490000E-03    1.0000000E-24
 -1.1485000E-03    1.0000001E-24
 -1.1480000E-03    1.0000002E-24
 -1.1475000E-03    1.0000003E-24
 -1.1470000E-03    1.0000004E-24
 -1.1465000E-03    1.0000005E-24
 -1.1460000E-03    1.0000005E-24
 -1.1455000E-03    1.0000005E-24
 -1.1450000E-03    1.0000005E-24
 -1.1445000E-03    1.0000004E-24
 -1.1440000E-03    1.0000003E-24
 -1.1435000E-03    1.0000002E-24
 -1.1430000E-03    1.0000000E-24
 -1.1425000E-03    9.9999982E-25
 -1.1420000E-03    9.9999963E-25
 -1.1415000E-03    9.9999943E-25
 -1.1410000E-03    9.9999933E-25
 -1.1405000E-03    9.9999933E-25
 -1.1399999E-03    9.9999953E-25
 -1.1394999E-03    1.0000000E-24
 -1.1390001E-03    1.0000008E-24
 -1.1385001E-03    1.0000021E-24
 -1.1380001E-03    1.0000039E-24
 -1.1375000E-03    1.0000061E-24
 -1.1370000E-03    1.0000090E-24
 -1.1365000E-03    1.0000123E-24
 -1.1360000E-03    1.0000159E-24
 -1.1355000E-03    1.0000192E-24
 -1.1350000E-03    1.0000217E-24
 -1.1345000E-03    1.0000223E-24
 -1.1340000E-03    1.0000196E-24
 -1.1335000E-03    1.0000119E-24
 -1.1330000E-03    9.9999686E-25
 -1.1325000E-03    9.9997221E-25
 -1.1320000E-03    9.9993543E-25
 -1.1315000E-03    9.9988425E-25
 -1.1310000E-03    9.9981720E-25
 -1.1305000E-03    9.9973457E-25
 -1.1300000E-03    9.9963902E-25
 -1.1295000E-03    9.9953706E-25
 -1.1290000E-03    9.9944013E-25
 -1.1285000E-03    9.9936617E-25
 -1.1280000E-03    9.9934043E-25
 -1.1275000E-03    9.9939664E-25
 -1.1270000E-03    9.9957650E-25
 -1.1265000E-03    9.9992853E-25
 -1.1260000E-03    1.0005051E-24
 -1.1255000E-03    1.0013567E-24
 -1.1250000E-03    1.0025238E-24
 -1.1244999E-03    1.0040256E-24
 -1.1239999E-03    1.0058451E-24
 -1.1235001E-03    1.0079112E-24
 -1.1230001E-03    1.0100790E-24
 -1.1225000E-03    1.0121087E-24
 -1.1220000E-03    1.0136483E-24
 -1.1215000E-03    1.0142194E-24
 -1.1210000E-03    1.0132157E-24
 -1.1205000E-03    1.0099156E-24
 -1.1200000E-03    1.0035186E-24
 -1.1195000E-03    9.9320931E-25
 -1.1190000E-03    9.7825714E-25
 -1.1185000E-03    9.5815410E-25
 -1.1180000E-03    9.3279380E-25
 -1.1175000E-03    9.0268673E-25
 -1.1170000E-03    8.6920116E-25
 -1.1165000E-03    8.3481452E-25
 -1.1160000E-03    8.0334331E-25
 -1.1155000E-03    7.8011727E-25
 -1.1150000E-03    7.7204471E-25
 -1.1145000E-03    7.8751481E-25
 -1.1140000E-03    8.3606989E-25
 -1.1135000E-03    9.2778562E-25
 -1.1130000E-03    1.0722993E-24
 -1.1125000E-03    1.2774503E-24
 -1.1120000E-03    1.5475194E-24
 -1.1115000E-03    1.8811051E-24
 -1.1110000E-03    2.2687302E-24
 -1.1105000E-03    2.6903454E-24
 -1.1100000E-03    3.1129840E-24
 -1.1094999E-03    3.4889058E-24
 -1.1089999E-03    3.7546600E-24
 -1.1084999E-03    3.8315593E-24
 -1.1080001E-03    3.6281141E-24
 -1.1075001E-03    3.0449451E-24
 -1.1070000E-03    1.9826559E-24
 -1.1065000E-03    3.5296142E-25
 -1.1060000E-03   -1.9068504E-24
 -1.1055000E-03   -4.8164222E-24
 -1.1050000E-03   -8.3325358E-24
 -1.1045000E-03   -1.2328331E-23
 -1.1040000E-03   -1.6573453E-23
 -1.1035000E-03   -2.0717690E-23
 -1.1030000E-03   -2.4281241E-23
 -1.1025000E-03   -2.6655279E-23
 -1.1020000E-03   -2.7116620E-23
 -1.1015000E-03   -2.4860335E-23
 -1.1010000E-03   -1.9053507E-23
 -1.1005000E-03   -8.9122602E-24
 -1.1000000E-03    6.1974980E-24
 -1.0995000E-03    2.6637643E-23
 -1.0990000E-03    5.2358699E-23
 -1.0985000E-03    8.2752676E-23
 -1.0980000E-03    1.1651035E-22
 -1.0975000E-03    1.5149955E-22
 -1.0970000E-03    1.8468456E-22
 -1.0965000E-03    2.1210943E-22
 -1.0960000E-03    2.2896931E-22
 -1.0955000E-03    2.2979309E-22
 -1.0950000E-03    2.0875698E-22
 -1.0945000E-03    1.6014187E-22
 -1.0939999E-03    7.8937240E-23
 -1.0934999E-03   -3.8420249E-23
 -1.0930001E-03   -1.9320232E-22
 -1.0925001E-03   -3.8348836E-22
 -1.0920000E-03   -6.0327932E-22
 -1.0915000E-03   -8.4171933E-22
 -1.0910000E-03   -1.0825370E-21
 -1.0905000E-03   -1.3038313E-21
 -1.0900000E-03   -1.4783368E-21
 -1.0895000E-03   -1.5742900E-21
 -1.0890000E-03   -1.5570072E-21
 -1.0885000E-03   -1.3912427E-21
 -1.0880000E-03   -1.0443422E-21
 -1.0875000E-03   -4.9013561E-22
 -1.0870000E-03    2.8657714E-22
 -1.0865000E-03    1.2851940E-21
 -1.0860000E-03    2.4844869E-21
 -1.0855000E-03    3.8382469E-21
 -1.0850000E-03    5.2719476E-21
 -1.0845000E-03    6.6810490E-21
 -1.0840000E-03    7.9315780E-21
 -1.0835000E-03    8.8636030E-21
 -1.0830000E-03    9.2981280E-21
 -1.0825000E-03    9.0477403E-21
 -1.0820000E-03    7.9311305E-21
 -1.0815000E-03    5.7912312E-21
 -1.0810000E-03    2.5163474E-21
 -1.0805000E-03   -1.9368147E-21
 -1.0800000E-03   -7.5197859E-21
 -1.0795000E-03   -1.4070681E-20
 -1.0790000E-03   -2.1296681E-20
 -1.0784999E-03   -2.8763361E-20
 -1.0779999E-03   -3.5893732E-20
 -1.0775001E-03   -4.1979691E-20
 -1.0770001E-03   -4.6208193E-20
 -1.0765000E-03   -4.7703810E-20
 -1.0760000E-03   -4.5588224E-20
 -1.0755000E-03   -3.9055875E-20
 -1.0750000E-03   -2.7463340E-20
 -1.0745000E-03   -1.0428165E-20
 -1.0740000E-03    1.2069060E-20
 -1.0735000E-03    3.9587562E-20
 -1.0730000E-03    7.1143866E-20
 -1.0725000E-03    1.0515484E-19
 -1.0720000E-03    1.3941792E-19
 -1.0715000E-03    1.7113943E-19
 -1.0710000E-03    1.9702088E-19
 -1.0705000E-03    2.1341023E-19
 -1.0700000E-03    2.1652150E-19
 -1.0695000E-03    2.0272054E-19
 -1.0690000E-03    1.6886912E-19
 -1.0685000E-03    1.1271224E-19
 -1.0680000E-03    3.3286097E-20
 -1.0675000E-03   -6.8682907E-20
 -1.0670000E-03   -1.9042409E-19
 -1.0665000E-03   -3.2685445E-19
 -1.0660000E-03   -4.7043953E-19
 -1.0655000E-03   -6.1122666E-19
 -1.0650000E-03   -7.3708782E-19
 -1.0645000E-03   -8.3420214E-19
 -1.0640000E-03   -8.8779475E-19
 -1.0634999E-03   -8.8312863E-19
 -1.0629999E-03   -8.0672769E-19
 -1.0625001E-03   -6.4778261E-19
 -1.0620001E-03   -3.9966335E-19
 -1.0615001E-03   -6.1438711E-20
 -1.0610000E-03    3.6072300E-19
 -1.0605000E-03    8.5241531E-19
 -1.0600000E-03    1.3902722E-18
 -1.0595000E-03    1.9418191E-18
 -1.0590000E-03    2.4660392E-18
 -1.0585000E-03    2.9147702E-18
 -1.0580000E-03    3.2350058E-18
 -1.0575000E-03    3.3721124E-18
 -1.0570000E-03    3.2739072E-18
 -1.0565000E-03    2.8954469E-18
 -1.0560000E-03    2.2042951E-18
 -1.0555000E-03    1.1859418E-18
 -1.0550000E-03   -1.5104377E-19
 -1.0545000E-03   -1.7706066E-18
 -1.0540000E-03   -3.6060753E-18
 -1.0535000E-03   -5.5588493E-18
 -1.0530000E-03   -7.4994047E-18
 -1.0525000E-03   -9.2710568E-18
 -1.0520000E-03   -1.0696752E-17
 -1.0515000E-03   -1.1589010E-17
 -1.0510000E-03   -1.1762853E-17
 -1.0505000E-03   -1.1051339E-17
 -1.0500000E-03   -9.3229269E-18
 -1.0495000E-03   -6.4996829E-18
 -1.0490000E-03   -2.5749630E-18
 -1.0485000E-03    2.3709761E-18
 -1.0479999E-03    8.1591888E-18
 -1.0474999E-03    1.4505853E-17
 -1.0470001E-03    2.1023391E-17
 -1.0465001E-03    2.7230332E-17
 -1.0460000E-03    3.2570958E-17
 -1.0455000E-03    3.6445111E-17
 -1.0450000E-03    3.8247842E-17
 -1.0445000E-03    3.7417624E-17
 -1.0440000E-03    3.3490882E-17
 -1.0435000E-03    2.6159602E-17
 -1.0430000E-03    1.5327832E-17
 -1.0425000E-03    1.1621354E-18
 -1.0420000E-03   -1.5869472E-17
 -1.0415000E-03   -3.4975691E-17
 -1.0410000E-03   -5.5042517E-17
 -1.0405000E-03   -7.4660674E-17
 -1.0400000E-03   -9.2182966E-17
 -1.0395000E-03   -1.0581277E-16
 -1.0390000E-03   -1.1372225E-16
 -1.0385000E-03   -1.1419631E-16
 -1.0380000E-03   -1.0579515E-16
 -1.0375000E-03   -8.7525324E-17
 -1.0370000E-03   -5.9006347E-17
 -1.0365000E-03   -2.0618046E-17
 -1.0360000E-03    2.6387775E-17
 -1.0355000E-03    7.9827621E-17
 -1.0350000E-03    1.3659358E-16
 -1.0345000E-03    1.9273975E-16
 -1.0340000E-03    2.4365535E-16
 -1.0335000E-03    2.8432596E-16
 -1.0329999E-03    3.0967712E-16
 -1.0324999E-03    3.1498598E-16
 -1.0319999E-03    2.9633800E-16
 -1.0315001E-03    2.5109799E-16
 -1.0310001E-03    1.7835694E-16
 -1.0305000E-03    7.9311804E-17
 -1.0300000E-03   -4.2467171E-17
 -1.0295000E-03   -1.8092485E-16
 -1.0290000E-03   -3.2760317E-16
 -1.0285000E-03   -4.7194426E-16
 -1.0280000E-03   -6.0182718E-16
 -1.0275000E-03   -7.0433246E-16
 -1.0270000E-03   -7.6670728E-16
 -1.0265000E-03   -7.7748143E-16
 -1.0260000E-03   -7.2766038E-16
 -1.0255000E-03   -6.1190470E-16
 -1.0250000E-03   -4.2958636E-16
 -1.0245000E-03   -1.8560789E-16
 -1.0240000E-03    1.0913036E-16
 -1.0235000E-03    4.3771693E-16
 -1.0230000E-03    7.7774751E-16
 -1.0225000E-03    1.1024187E-15
 -1.0220000E-03    1.3821943E-15
 -1.0215000E-03    1.5869880E-15
 -1.0210000E-03    1.6887501E-15
 -1.0205000E-03    1.6642865E-15
 -1.0200000E-03    1.4980898E-15
 -1.0195000E-03    1.1849203E-15
 -1.0190000E-03    7.3185632E-16
 -1.0185000E-03    1.5953270E-16
 -1.0180000E-03   -4.9768363E-16
 -1.0174999E-03   -1.1927751E-15
 -1.0169999E-03   -1.8685178E-15
 -1.0165001E-03   -2.4612842E-15
 -1.0160001E-03   -2.9060646E-15
 -1.0155000E-03   -3.1424334E-15
 -1.0150000E-03   -3.1210354E-15
 -1.0145000E-03   -2.8100574E-15
 -1.0140000E-03   -2.2010437E-15
 -1.0135000E-03   -1.3133814E-15
 -1.0130000E-03   -1.9678235E-16
 -1.0125000E-03    1.0688279E-15
 -1.0120000E-03    2.3764486E-15
 -1.0115000E-03    3.5983857E-15
 -1.0110000E-03    4.5958068E-15
 -1.0105000E-03    5.2310697E-15
 -1.0100000E-03    5.3820795E-15
 -1.0095000E-03    4.9575839E-15
 -1.0090000E-03    3.9120310E-15
 -1.0085000E-03    2.2584109E-15
 -1.0080000E-03    7.7396312E-17
 -1.0075000E-03   -2.4788148E-15
 -1.0070000E-03   -5.1893363E-15
 -1.0065000E-03   -7.7750594E-15
 -1.0060000E-03   -9.9171261E-15
 -1.0055000E-03   -1.1283019E-14
 -1.0050000E-03   -1.1559078E-14
 -1.0045000E-03   -1.0487355E-14
 -1.0040000E-03   -7.9038864E-15
 -1.0035000E-03   -3.7747803E-15
 -1.0030000E-03    1.7739632E-15
 -1.0025000E-03    8.4371359E-15
 -1.0019999E-03    1.5725500E-14
 -1.0014999E-03    2.2978769E-14
 -1.0010001E-03    2.9398593E-14
 -1.0005001E-03    3.4102119E-14
 -1.0000000E-03    3.6194877E-14
 -9.9950004E-04    3.4859465E-14
 -9.9900004E-04    2.9454388E-14
 -9.9850004E-04    1.9615240E-14
 -9.9800003E-04    5.3487670E-15
 -9.9750003E-04   -1.2890888E-14
 -9.9700002E-04   -3.4154605E-14
 -9.9650002E-04   -5.6989651E-14
 -9.9600002E-04   -7.9478457E-14
 -9.9550001E-04   -9.9330090E-14
 -9.9500001E-04   -1.1402607E-13
 -9.9450001E-04   -1.2101684E-13
 -9.9400000E-04   -1.1795992E-13
 -9.9350000E-04   -1.0298502E-13
 -9.9299999E-04   -7.4966278E-14
 -9.9249999E-04   -3.3777007E-14
 -9.9199999E-04    1.9500198E-14
 -9.9149998E-04    8.2436167E-14
 -9.9099998E-04    1.5121713E-13
 -9.9049998E-04    2.2072823E-13
 -9.8999997E-04    2.8477310E-13
 -9.8949997E-04    3.3643468E-13
 -9.8899996E-04    3.6856987E-13
 -9.8849996E-04    3.7441702E-13
 -9.8799996E-04    3.4828111E-13
 -9.8749995E-04    2.8624843E-13
 -9.8699995E-04    1.8687055E-13
 -9.8649994E-04    5.1750369E-14
 -9.8600006E-04   -1.1404037E-13
 -9.8550005E-04   -3.0177962E-13
 -9.8500005E-04   -4.9920734E-13
 -9.8450005E-04   -6.9097310E-13
 -9.8400004E-04   -8.5943736E-13
 -9.8350004E-04   -9.8581527E-13
 -9.8300003E-04   -1.0516214E-12
 -9.8250003E-04   -1.0403373E-12
 -9.8200003E-04   -9.3919328E-13
 -9.8150002E-04   -7.4092436E-13
 -9.8100002E-04   -4.4534398E-13
 -9.8050002E-04   -6.0564753E-14
 -9.8000001E-04    3.9629877E-13
 -9.7950001E-04    8.9909129E-13
 -9.7900000E-04    1.4133551E-12
 -9.7850000E-04    1.8979061E-12
 -9.7800000E-04    2.3072473E-12
 -9.7749999E-04    2.5947430E-12
 -9.7699999E-04    2.7164007E-12
 -9.7649998E-04    2.6350315E-12
 -9.7599998E-04    2.3244876E-12
 -9.7549998E-04    1.7736243E-12
 -9.7499997E-04    9.8960445E-13
 -9.7450003E-04    1.5934597E-16
 -9.7400002E-04   -1.1455475E-12
 -9.7350002E-04   -2.3777404E-12
 -9.7300002E-04   -3.6087203E-12
 -9.7250001E-04   -4.7374747E-12
 -9.7200001E-04   -5.6561019E-12
 -9.7150001E-04   -6.2577790E-12
 -9.7100000E-04   -6.4458135E-12
 -9.7050000E-04   -6.1431867E-12
 -9.6999999E-04   -5.3018371E-12
 -9.6949999E-04   -3.9108760E-12
 -9.6899999E-04   -2.0028783E-12
 -9.6849998E-04    3.4254950E-13
 -9.6799998E-04    2.9986152E-12
 -9.6749997E-04    5.7950927E-12
 -9.6700003E-04    8.5262119E-12
 -9.6650003E-04    1.0962605E-11
 -9.6600002E-04    1.2866865E-11
 -9.6550002E-04    1.4011917E-11
 -9.6500001E-04    1.4201054E-11
 -9.6450001E-04    1.3288182E-11
 -9.6400001E-04    1.1196630E-11
 -9.6350000E-04    7.9347553E-12
 -9.6300000E-04    3.6066369E-12
 -9.6249999E-04   -1.5836993E-12
 -9.6199999E-04   -7.3357119E-12
 -9.6149999E-04   -1.3264141E-11
 -9.6099998E-04   -1.8919293E-11
 -9.6049998E-04   -2.3815219E-11
 -9.5999998E-04   -2.7464466E-11
 -9.5949997E-04   -2.9417385E-11
 -9.5900003E-04   -2.9303324E-11
 -9.5850002E-04   -2.6870516E-11
 -9.5800002E-04   -2.2021329E-11
 -9.5750001E-04   -1.4839241E-11
 -9.5700001E-04   -5.6044657E-12
 -9.5650001E-04    5.2045165E-12
 -9.5600000E-04    1.6925350E-11
 -9.5550000E-04    2.8742833E-11
 -9.5500000E-04    3.9736069E-11
 -9.5449999E-04    4.8939752E-11
 -9.5399999E-04    5.5416310E-11
 -9.5349998E-04    5.8334282E-11
 -9.5299998E-04    5.7047218E-11
 -9.5249998E-04    5.1166817E-11
 -9.5199997E-04    4.0623678E-11
 -9.5150003E-04    2.5709273E-11
 -9.5100002E-04    7.0936837E-12
 -9.5050002E-04   -1.4185096E-11
 -9.5000002E-04   -3.6762579E-11
 -9.4950001E-04   -5.9019969E-11
 -9.4900001E-04   -7.9184673E-11
 -9.4850000E-04   -9.5454041E-11
 -9.4800000E-04   -1.0613498E-10
 -9.4750000E-04   -1.0978978E-10
 -9.4699999E-04   -1.0537714E-10
 -9.4649999E-04   -9.2376516E-11
 -9.4599999E-04   -7.0884104E-11
 -9.4549998E-04   -4.1669699E-11
 -9.4499998E-04   -6.1859862E-12
 -9.4449997E-04    3.3475476E-11
 -9.4400003E-04    7.4683364E-11
 -9.4350002E-04    1.1441846E-10
 -9.4300002E-04    1.4947138E-10
 -9.4250002E-04    1.7667492E-10
 -9.4200001E-04    1.9315599E-10
 -9.4150001E-04    1.9658865E-10
 -9.4100001E-04    1.8542876E-10
 -9.4050000E-04    1.5910941E-10
 -9.4000000E-04    1.1817798E-10
 -9.3949999E-04    6.4358852E-11
 -9.3899999E-04    5.2935640E-13
 -9.3849999E-04   -6.9396433E-11
 -9.3799998E-04   -1.4067580E-10
 -9.3749998E-04   -2.0802896E-10
 -9.3699998E-04   -2.6599828E-10
 -9.3649997E-04   -3.0935338E-10
 -9.3600003E-04   -3.3351369E-10
 -9.3550002E-04   -3.3495709E-10
 -9.3500002E-04   -3.1158115E-10
 -9.3450001E-04   -2.6298483E-10
 -9.3400001E-04   -1.9064224E-10
 -9.3350001E-04   -9.7945256E-11
 -9.3300000E-04    9.8978915E-12
 -9.3250000E-04    1.2611237E-10
 -9.3200000E-04    2.4274674E-10
 -9.3149999E-04    3.5118364E-10
 -9.3099999E-04    4.4274101E-10
 -9.3049998E-04    5.0932358E-10
 -9.2999998E-04    5.4407823E-10
 -9.2949998E-04    5.4200244E-10
 -9.2899997E-04    5.0045595E-10
 -9.2850003E-04    4.1952852E-10
 -9.2800002E-04    3.0222649E-10
 -9.2750002E-04    1.5445062E-10
 -9.2700002E-04   -1.5246453E-11
 -9.2650001E-04   -1.9611913E-10
 -9.2600001E-04   -3.7588274E-10
 -9.2550000E-04   -5.4152438E-10
 -9.2500000E-04   -6.8021894E-10
 -9.2450000E-04   -7.8028550E-10
 -9.2399999E-04   -8.3211504E-10
 -9.2349999E-04   -8.2899643E-10
 -9.2299999E-04   -7.6777257E-10
 -9.2249998E-04   -6.4926814E-10
 -9.2199998E-04   -4.7844434E-10
 -9.2149997E-04   -2.6425620E-10
 -9.2100003E-04   -1.9207899E-11
 -9.2050002E-04    2.4137353E-10
 -9.2000002E-04    5.0030446E-10
 -9.1950002E-04    7.3968875E-10
 -9.1900001E-04    9.4216046E-10
 -9.1850001E-04    1.0921377E-09
 -9.1800001E-04    1.1769926E-09
 -9.1750000E-04    1.1880497E-09
 -9.1700000E-04    1.1213322E-09
 -9.1649999E-04    9.7799424E-10
 -9.1599999E-04    7.6439893E-10
 -9.1549999E-04    4.9182874E-10
 -9.1499998E-04    1.7584197E-10
 -9.1449998E-04   -1.6468386E-10
 -9.1399997E-04   -5.0875526E-10
 -9.1349997E-04   -8.3462881E-10
 -9.1300003E-04   -1.1212410E-09
 -9.1250002E-04   -1.3495997E-09
 -9.1200002E-04   -1.5040362E-09
 -9.1150001E-04   -1.5732317E-09
 -9.1100001E-04   -1.5509434E-09
 -9.1050001E-04   -1.4363892E-09
 -9.1000000E-04   -1.2342687E-09
 -9.0950000E-04   -9.5442976E-10
 -9.0899999E-04   -6.1121974E-10
 -9.0849999E-04   -2.2257837E-10
 -9.0799999E-04    1.9105074E-10
 -9.0749998E-04    6.0790378E-10
 -9.0699998E-04    1.0060890E-09
 -9.0649998E-04    1.3647075E-09
 -9.0599997E-04    1.6648364E-09
 -9.0550003E-04    1.8903281E-09
 -9.0500002E-04    2.0284023E-09
 -9.0450002E-04    2.0700310E-09
 -9.0400001E-04    2.0101363E-09
 -9.0350001E-04    1.8476400E-09
 -9.0300001E-04    1.5854087E-09
 -9.0250000E-04    1.2301457E-09
 -9.0200000E-04    7.9226525E-10
 -9.0150000E-04    2.8577699E-10
 -9.0099999E-04   -2.7181773E-10
 -9.0049999E-04   -8.5963814E-10
 -8.9999998E-04   -1.4535902E-09
 -8.9949998E-04   -2.0266531E-09
 -8.9899998E-04   -2.5493603E-09
 -8.9849997E-04   -2.9905598E-09
 -8.9800003E-04   -3.3185135E-09
 -8.9750002E-04   -3.5023833E-09
 -8.9700002E-04   -3.5140986E-09
 -8.9650002E-04   -3.3305638E-09
 -8.9600001E-04   -2.9360938E-09
 -8.9550001E-04   -2.3249169E-09
 -8.9500000E-04   -1.5035323E-09
 -8.9450000E-04   -4.9266008E-10
 -8.9400000E-04    6.7148331E-10
 -8.9349999E-04    1.9368578E-09
 -8.9299999E-04    3.2364558E-09
 -8.9249999E-04    4.4905106E-09
 -8.9199998E-04    5.6101332E-09
 -8.9149998E-04    6.5023342E-09
 -8.9099997E-04    7.0762560E-09
 -8.9050003E-04    7.2502919E-09
 -8.9000002E-04    6.9596440E-09
 -8.8950002E-04    6.1637504E-09
 -8.8900002E-04    4.8529394E-09
 -8.8850001E-04    3.0536347E-09
 -8.8800001E-04    8.3145107E-10
 -8.8750001E-04   -1.7083722E-09
 -8.8700000E-04   -4.4236277E-09
 -8.8650000E-04   -7.1410917E-09
 -8.8599999E-04   -9.6657322E-09
 -8.8549999E-04   -1.1792848E-08
 -8.8499999E-04   -1.3322525E-08
 -8.8449998E-04   -1.4075534E-08
 -8.8399998E-04   -1.3909530E-08
 -8.8349998E-04   -1.2734318E-08
 -8.8299997E-04   -1.0524777E-08
 -8.8250003E-04   -7.3301849E-09
 -8.8200002E-04   -3.2787402E-09
 -8.8150002E-04    1.4236102E-09
 -8.8100001E-04    6.5005619E-09
 -8.8050001E-04    1.1619148E-08
 -8.8000001E-04    1.6409301E-08
 -8.7950000E-04    2.0488335E-08
 -8.7900000E-04    2.3488870E-08
 -8.7850000E-04    2.5088358E-08
 -8.7799999E-04    2.5037972E-08
 -8.7749999E-04    2.3188516E-08
 -8.7699998E-04    1.9511043E-08
 -8.7649998E-04    1.4110006E-08
 -8.7599998E-04    7.2272743E-09
 -8.7549997E-04   -7.6416512E-10
 -8.7500003E-04   -9.3771844E-09
 -8.7450002E-04   -1.8037777E-08
 -8.7400002E-04   -2.6121306E-08
 -8.7350002E-04   -3.2995629E-08
 -8.7300001E-04   -3.8068247E-08
 -8.7250001E-04   -4.0834138E-08
 -8.7200000E-04   -4.0920465E-08
 -8.7150000E-04   -3.8124551E-08
 -8.7100000E-04   -3.2441502E-08
 -8.7049999E-04   -2.4078629E-08
 -8.6999999E-04   -1.3454575E-08
 -8.6949999E-04   -1.1821529E-09
 -8.6899998E-04    1.1964897E-08
 -8.6849998E-04    2.5099672E-08
 -8.6799997E-04    3.7281620E-08
 -8.6750003E-04    4.7583860E-08
 -8.6700002E-04    5.5163561E-08
 -8.6650002E-04    5.9329970E-08
 -8.6600002E-04    5.9604702E-08
 -8.6550001E-04    5.5769043E-08
 -8.6500001E-04    4.7893828E-08
 -8.6450001E-04    3.6348645E-08
 -8.6400000E-04    2.1788484E-08
 -8.6350000E-04    5.1177427E-09
 -8.6299999E-04   -1.2566687E-08
 -8.6249999E-04   -3.0049797E-08
 -8.6199999E-04   -4.6085191E-08
 -8.6149998E-04   -5.9487913E-08
 -8.6099998E-04   -6.9226203E-08
 -8.6049997E-04   -7.4504847E-08
 -8.5999997E-04   -7.4833132E-08
 -8.5950003E-04   -7.0071358E-08
 -8.5900002E-04   -6.0451342E-08
 -8.5850002E-04   -4.6568349E-08
 -8.5800001E-04   -2.9344084E-08
 -8.5750001E-04   -9.9628021E-09
 -8.5700001E-04    1.0215132E-08
 -8.5650000E-04    2.9755768E-08
 -8.5600000E-04    4.7262287E-08
 -8.5549999E-04    6.1484890E-08
 -8.5499999E-04    7.1420743E-08
 -8.5449999E-04    7.6395224E-08
 -8.5399998E-04    7.6117345E-08
 -8.5349998E-04    7.0703798E-08
 -8.5299998E-04    6.0669102E-08
 -8.5249997E-04    4.6881759E-08
 -8.5200003E-04    3.0489705E-08
 -8.5150002E-04    1.2820935E-08
 -8.5100002E-04   -4.7323581E-09
 -8.5050002E-04   -2.0835959E-08
 -8.5000001E-04   -3.4331176E-08
 -8.4950001E-04   -4.4336787E-08
 -8.4900000E-04   -5.0325550E-08
 -8.4850000E-04   -5.2167444E-08
 -8.4800000E-04   -5.0134698E-08
 -8.4749999E-04   -4.4867082E-08
 -8.4699999E-04   -3.7299735E-08
 -8.4649998E-04   -2.8559448E-08
 -8.4599998E-04   -1.9838772E-08
 -8.4549998E-04   -1.2259871E-08
 -8.4499997E-04   -6.7416508E-09
 -8.4450003E-04   -3.8841681E-09
 -8.4400002E-04   -3.8833146E-09
 -8.4350002E-04   -6.4865788E-09
 -8.4300002E-04   -1.0997194E-08
 -8.4250001E-04   -1.6329624E-08
 -8.4200001E-04   -2.1114312E-08
 -8.4150000E-04   -2.3844535E-08
 -8.4100000E-04   -2.3053321E-08
 -8.4050000E-04   -1.7504432E-08
 -8.3999999E-04   -6.3786159E-09
 -8.3949999E-04    1.0564859E-08
 -8.3899999E-04    3.2870631E-08
 -8.3849998E-04    5.9330382E-08
 -8.3799998E-04    8.7998963E-08
 -8.3749997E-04    1.1628985E-07
 -8.3700003E-04    1.4114920E-07
 -8.3650002E-04    1.5929996E-07
 -8.3600002E-04    1.6754026E-07
 -8.3550002E-04    1.6307324E-07
 -8.3500001E-04    1.4384025E-07
 -8.3450001E-04    1.0882658E-07
 -8.3400001E-04    5.8307744E-08
 -8.3350000E-04   -5.9930922E-09
 -8.3300000E-04   -8.0860744E-08
 -8.3249999E-04   -1.6167334E-07
 -8.3199999E-04   -2.4262397E-07
 -8.3149999E-04   -3.1707367E-07
 -8.3099998E-04   -3.7801860E-07
 -8.3049998E-04   -4.1864291E-07
 -8.2999998E-04   -4.3291845E-07
 -8.2949997E-04   -4.1620413E-07
 -8.2900003E-04   -3.6579431E-07
 -8.2850002E-04   -2.8136415E-07
 -8.2800002E-04   -1.6526477E-07
 -8.2750001E-04   -2.2627979E-08
 -8.2700001E-04    1.3874548E-07
 -8.2650001E-04    3.0872647E-07
 -8.2600000E-04    4.7541994E-07
 -8.2550000E-04    6.2592380E-07
 -8.2500000E-04    7.4724124E-07
 -8.2449999E-04    8.2728621E-07
 -8.2399999E-04    8.5590960E-07
 -8.2349998E-04    8.2586644E-07
 -8.2299998E-04    7.3364242E-07
 -8.2249998E-04    5.8006162E-07
 -8.2199997E-04    3.7061082E-07
 -8.2150003E-04    1.1543121E-07
 -8.2100002E-04   -1.7104853E-07
 -8.2050002E-04   -4.7083734E-07
 -8.2000002E-04   -7.6343690E-07
 -8.1950001E-04   -1.0271708E-06
 -8.1900001E-04   -1.2407053E-06
 -8.1850000E-04   -1.3846618E-06
 -8.1800000E-04   -1.4432017E-06
 -8.1750000E-04   -1.4054643E-06
 -8.1699999E-04   -1.2667366E-06
 -8.1649999E-04   -1.0292486E-06
 -8.1599999E-04   -7.0250962E-07
 -8.1549998E-04   -3.0313001E-07
 -8.1499998E-04    1.4589470E-07
 -8.1449997E-04    6.1641538E-07
 -8.1400003E-04    1.0768199E-06
 -8.1350002E-04    1.4940856E-06
 -8.1300002E-04    1.8360643E-06
 -8.1250002E-04    2.0738466E-06
 -8.1200001E-04    2.1840356E-06
 -8.1150001E-04    2.1507581E-06
 -8.1100001E-04    1.9672543E-06
 -8.1050000E-04    1.6369050E-06
 -8.1000000E-04    1.1735877E-06
 -8.0949999E-04    6.0130679E-07
 -8.0899999E-04   -4.6920711E-08
 -8.0849999E-04   -7.3087921E-07
 -8.0799998E-04   -1.4055753E-06
 -8.0749998E-04   -2.0241230E-06
 -8.0699997E-04   -2.5409101E-06
 -8.0649997E-04   -2.9148357E-06
 -8.0600003E-04   -3.1123934E-06
 -8.0550002E-04   -3.1103727E-06
 -8.0500002E-04   -2.8979766E-06
 -8.0450001E-04   -2.4781768E-06
 -8.0400001E-04   -1.8681806E-06
 -8.0350001E-04   -1.0989387E-06
 -8.0300000E-04   -2.1368939E-07
 -8.0250000E-04    7.3440191E-07
 -8.0200000E-04    1.6853786E-06
 -8.0149999E-04    2.5762215E-06
 -8.0099999E-04    3.3449367E-06
 -8.0049998E-04    3.9347383E-06
 -7.9999998E-04    4.2980460E-06
 -7.9949998E-04    4.4000199E-06
 -7.9899997E-04    4.2213837E-06
 -7.9850003E-04    3.7603170E-06
 -7.9800002E-04    3.0332665E-06
 -7.9750002E-04    2.0745842E-06
 -7.9700002E-04    9.3498613E-07
 -7.9650001E-04   -3.2110921E-07
 -7.9600001E-04   -1.6192134E-06
 -7.9550000E-04   -2.8791662E-06
 -7.9500000E-04   -4.0200352E-06
 -7.9450000E-04   -4.9652126E-06
 -7.9399999E-04   -5.6473868E-06
 -7.9349999E-04   -6.0130756E-06
 -7.9299998E-04   -6.0264128E-06
 -7.9249998E-04   -5.6719450E-06
 -7.9199998E-04   -4.9562354E-06
 -7.9149997E-04   -3.9081469E-06
 -7.9100003E-04   -2.5777708E-06
 -7.9050002E-04   -1.0340308E-06
 -7.9000002E-04    6.3891196E-07
 -7.8950002E-04    2.3462587E-06
 -7.8900001E-04    3.9879183E-06
 -7.8850001E-04    5.4642942E-06
 -7.8800000E-04    6.6821726E-06
 -7.8750000E-04    7.5603743E-06
 -7.8700000E-04    8.0348354E-06
 -7.8649999E-04    8.0628088E-06
 -7.8599999E-04    7.6259430E-06
 -7.8549999E-04    6.7320320E-06
 -7.8499998E-04    5.4153284E-06
 -7.8449998E-04    3.7353714E-06
 -7.8399997E-04    1.7743747E-06
 -7.8350003E-04   -3.6671105E-07
 -7.8300002E-04   -2.5732677E-06
 -7.8250002E-04   -4.7229596E-06
 -7.8200002E-04   -6.6922626E-06
 -7.8150001E-04   -8.3632394E-06
 -7.8100001E-04   -9.6302056E-06
 -7.8050001E-04   -1.0405940E-05
 -7.8000000E-04   -1.0627101E-05
 -7.7950000E-04   -1.0258551E-05
 -7.7899999E-04   -9.2963310E-06
 -7.7849999E-04   -7.7690947E-06
 -7.7799999E-04   -5.7378743E-06
 -7.7749998E-04   -3.2941291E-06
 -7.7699998E-04   -5.5611571E-07
 -7.7649998E-04    2.3363145E-06
 -7.7599997E-04    5.2282885E-06
 -7.7550003E-04    7.9575866E-06
 -7.7500002E-04    1.0363081E-05
 -7.7450002E-04    1.2293555E-05
 -7.7400001E-04    1.3616448E-05
 -7.7350001E-04    1.4226101E-05
 -7.7300001E-04    1.4051015E-05
 -7.7250000E-04    1.3059698E-05
 -7.7200000E-04    1.1264708E-05
 -7.7150000E-04    8.7245362E-06
 -7.7099999E-04    5.5431133E-06
 -7.7049999E-04    1.8667674E-06
 -7.6999998E-04   -2.1213432E-06
 -7.6949998E-04   -6.2092317E-06
 -7.6899998E-04   -1.0166235E-05
 -7.6849997E-04   -1.3754921E-05
 -7.6800003E-04   -1.6744199E-05
 -7.6750002E-04   -1.8923007E-05
 -7.6700002E-04   -2.0113806E-05
 -7.6650002E-04   -2.0185136E-05
 -7.6600001E-04   -1.9062369E-05
 -7.6550001E-04   -1.6735981E-05
 -7.6500000E-04   -1.3266572E-05
 -7.6450000E-04   -8.7861536E-06
 -7.6400000E-04   -3.4953164E-06
 -7.6349999E-04    2.3438863E-06
 -7.6299999E-04    8.4192325E-06
 -7.6249999E-04    1.4383440E-05
 -7.6199998E-04    1.9872488E-05
 -7.6149998E-04    2.4526278E-05
 -7.6099997E-04    2.8010538E-05
 -7.6050003E-04    3.0038766E-05
 -7.6000002E-04    3.0392835E-05
 -7.5950002E-04    2.8940918E-05
 -7.5900002E-04    2.5651399E-05
 -7.5850001E-04    2.0601667E-05
 -7.5800001E-04    1.3980821E-05
 -7.5750001E-04    6.0857096E-06
 -7.5700000E-04   -2.6899359E-06
 -7.5650000E-04   -1.1873090E-05
 -7.5599999E-04   -2.0935118E-05
 -7.5549999E-04   -2.9320507E-05
 -7.5499999E-04   -3.6479185E-05
 -7.5449998E-04   -4.1900672E-05
 -7.5399998E-04   -4.5148012E-05
 -7.5349997E-04   -4.5889374E-05
 -7.5299997E-04   -4.3925149E-05
 -7.5250003E-04   -3.9208579E-05
 -7.5200002E-04   -3.1858151E-05
 -7.5150002E-04   -2.2160513E-05
 -7.5100001E-04   -1.0563023E-05
 -7.5050001E-04    2.3441394E-06
 -7.5000001E-04    1.5855907E-05
 -7.4950000E-04    2.9189127E-05
 -7.4900000E-04    4.1526422E-05
 -7.4850000E-04    5.2064835E-05
 -7.4799999E-04    6.0066362E-05
 -7.4749999E-04    6.4907414E-05
 -7.4699998E-04    6.6123859E-05
 -7.4649998E-04    6.3448708E-05
 -7.4599998E-04    5.6839457E-05