 -1.2000001E-03    1.0000000E-24
 -1.1995001E-03    1.0000000E-24
 -1.1990000E-03    1.0000000E-24
 -1.1985000E-03    1.0000000E-24
 -1.1980000E-03    1.0000000E-24
 -1.1975000E-03    1.0000000E-24
 -1.1970000E-03    1.0000000E-24
 -1.1965000E-03    1.0000000E-24
 -1.1960000E-03    1.0000001E-24
 -1.1955000E-03    1.0000001E-24
 -1.1950000E-03    1.0000001E-24
 -1.1945000E-03    1.0000001E-24
 -1.1940000E-03    1.0000001E-24
 -1.1935000E-03    1.0000001E-24
 -1.1930000E-03    1.0000001E-24
 -1.1925000E-03    1.0000001E-24
 -1.1920000E-03    1.0000001E-24
 -1.1915000E-03    1.0000001E-24
 -1.1910000E-03    1.0000001E-24
 -1.1905000E-03    1.0000001E-24
 -1.1900000E-03    1.0000001E-24
 -1.1895000E-03    1.0000001E-24
 -1.1890000E-03    1.0000001E-24
 -1.1885000E-03    1.0000001E-24
 -1.1880000E-03    1.0000001E-24
 -1.1875000E-03    1.0000001E-24
 -1.1870000E-03    1.0000002E-24
 -1.1865000E-03    1.0000002E-24
 -1.1860000E-03    1.0000002E-24
 -1.1854999E-03    1.0000002E-24
 -1.1849999E-03    1.0000002E-24
 -1.1845001E-03    1.0000002E-24
 -1.1840001E-03    1.0000002E-24
 -1.1835000E-03    1.0000002E-24
 -1.1830000E-03    1.0000002E-24
 -1.1825000E-03    1.0000002E-24
 -1.1820000E-03    1.0000002E-24
 -1.1815000E-03    1.0000001E-24
 -1.1810000E-03    1.0000001E-24
 -1.1805000E-03    1.0000001E-24
 -1.1800000E-03    1.0000001E-24
 -1.1795000E-03    1.0000001E-24
 -1.1790000E-03    1.0000001E-24
 -1.1785000E-03    1.0000001E-24
 -1.1780000E-03    1.0000001E-24
 -1.1775000E-03    1.0000001E-24
 -1.1770000E-03    1.0000001E-24
 -1.1765000E-03    1.0000001E-24
 -1.1760000E-03    1.0000001E-24
 -1.1755000E-03    1.0000001E-24
 -1.1750000E-03    1.0000001E-24
 -1.1745000E-03    1.0000001E-24
 -1.1740000E-03    1.0000001E-24
 -1.1735000E-03    1.0000001E-24
 -1.1730000E-03    1.0000001E-24
 -1.1725000E-03    1.0000001E-24
 -1.1720000E-03    1.0000001E-24
 -1.1715000E-03    1.0000001E-24
 -1.1710000E-03    1.0000001E-24
 -1.1704999E-03    1.0000001E-24
 -1.1699999E-03    1.0000001E-24
 -1.1695001E-03    1.0000001E-24
 -1.1690001E-03    1.0000001E-24
 -1.1685000E-03    1.0000001E-24
 -1.1680000E-03    1.0000001E-24
 -1.1675000E-03    1.0000001E-24
 -1.1670000E-03    1.0000001E-24
 -1.1665000E-03    1.0000001E-24
 -1.1660000E-03    1.0000001E-24
 -1.1655000E-03    1.0000001E-24
 -1.1650000E-03    1.0000001E-24
 -1.1645000E-03    1.0000001E-24
 -1.1640000E-03    1.0000001E-24
 -1.1635000E-03    1.0000001E-24
 -1.1630000E-03    1.0000001E-24
 -1.1625000E-03    1.0000001E-24
 -1.1620000E-03    1.0000001E-24
 -1.1615000E-03    1.0000001E-24
 -1.1610000E-03    1.0000002E-24
 -1.1605000E-03    1.0000003E-24
 -1.1600000E-03    1.0000003E-24
 -1.1595000E-03    1.0000003E-24
 -1.1590000E-03    1.0000003E-24
 -1.1585000E-03    1.0000003E-24
 -1.1580000E-03    1.0000003E-24
 -1.1575000E-03    1.0000003E-24
 -1.1570000E-03    1.0000003E-24
 -1.1565000E-03    1.0000003E-24
 -1.1560000E-03    1.0000003E-24
 -1.1555000E-03    1.0000003E-24
 -1.1549999E-03    1.0000003E-24
 -1.1544999E-03    1.0000003E-24
 -1.1540001E-03    1.0000002E-24
 -1.1535001E-03    1.0000001E-24
 -1.1530000E-03    1.0000000E-24
 -1.1525000E-03    1.0000000E-24
 -1.1520000E-03    1.0000000E-24
 -1.1515000E-03    1.0000000E-24
 -1.1510000E-03    1.0000000E-24
 -1.1505000E-03    1.0000000E-24
 -1.1500000E-03    1.0000000E-24
 -1.1495000E-03    1.0000000E-24
 -1.1490000E-03    1.0000000E-24
 -1.1485000E-03    1.0000000E-24
 -1.1480000E-03    1.0000000E-24
 -1.1475000E-03    1.0000000E-24
 -1.1470000E-03    1.0000000E-24
 -1.1465000E-03    1.0000000E-24
 -1.1460000E-03    1.0000000E-24
 -1.1455000E-03    1.0000000E-24
 -1.1450000E-03    1.0000000E-24
 -1.1445000E-03    1.0000000E-24
 -1.1440000E-03    1.0000000E-24
 -1.1435000E-03    1.0000000E-24
 -1.1430000E-03    1.0000000E-24
 -1.1425000E-03    1.0000000E-24
 -1.1420000E-03    1.0000000E-24
 -1.1415000E-03    1.0000000E-24
 -1.1410000E-03    1.0000000E-24
 -1.1405000E-03    1.0000000E-24
 -1.1399999E-03    1.0000000E-24
 -1.1394999E-03    1.0000000E-24
 -1.1390001E-03    1.0000000E-24
 -1.1385001E-03    1.0000001E-24
 -1.1380001E-03    1.0000002E-24
 -1.1375000E-03    1.0000003E-24
 -1.1370000E-03    1.0000004E-24
 -1.1365000E-03    1.0000005E-24
 -1.1360000E-03    1.0000006E-24
 -1.1355000E-03    1.0000007E-24
 -1.1350000E-03    1.0000007E-24
 -1.1345000E-03    1.0000007E-24
 -1.1340000E-03    1.0000007E-24
 -1.1335000E-03    1.0000006E-24
 -1.1330000E-03    1.0000005E-24
 -1.1325000E-03    1.0000004E-24
 -1.1320000E-03    1.0000003E-24
 -1.1315000E-03    1.0000002E-24
 -1.1310000E-03    1.0000001E-24
 -1.1305000E-03    1.0000000E-24
 -1.1300000E-03    9.9999992E-25
 -1.1295000E-03    9.9999982E-25
 -1.1290000E-03    9.9999982E-25
 -1.1285000E-03    9.9999982E-25
 -1.1280000E-03    9.9999992E-25
 -1.1275000E-03    1.0000000E-24
 -1.1270000E-03    1.0000001E-24
 -1.1265000E-03    1.0000002E-24
 -1.1260000E-03    1.0000003E-24
 -1.1255000E-03    1.0000004E-24
 -1.1250000E-03    1.0000005E-24
 -1.1244999E-03    1.0000005E-24
 -1.1239999E-03    1.0000005E-24
 -1.1235001E-03    1.0000005E-24
 -1.1230001E-03    1.0000005E-24
 -1.1225000E-03    1.0000004E-24
 -1.1220000E-03    1.0000003E-24
 -1.1215000E-03    1.0000002E-24
 -1.1210000E-03    1.0000001E-24
 -1.1205000E-03    1.0000000E-24
 -1.1200000E-03    9.9999992E-25
 -1.1195000E-03    9.9999982E-25
 -1.1190000E-03    9.9999972E-25
 -1.1185000E-03    9.9999963E-25
 -1.1180000E-03    9.9999963E-25
 -1.1175000E-03    9.9999963E-25
 -1.1170000E-03    9.9999963E-25
 -1.1165000E-03    9.9999963E-25
 -1.1160000E-03    9.9999972E-25
 -1.1155000E-03    9.9999982E-25
 -1.1150000E-03    9.9999992E-25
 -1.1145000E-03    1.0000000E-24
 -1.1140000E-03    1.0000001E-24
 -1.1135000E-03    1.0000002E-24
 -1.1130000E-03    1.0000003E-24
 -1.1125000E-03    1.0000003E-24
 -1.1120000E-03    1.0000003E-24
 -1.1115000E-03    1.0000003E-24
 -1.1110000E-03    1.0000003E-24
 -1.1105000E-03    1.0000003E-24
 -1.1100000E-03    1.0000003E-24
 -1.1094999E-03    1.0000003E-24
 -1.1089999E-03    1.0000003E-24
 -1.1084999E-03    1.0000003E-24
 -1.1080001E-03    1.0000003E-24
 -1.1075001E-03    1.0000004E-24
 -1.1070000E-03    1.0000005E-24
 -1.1065000E-03    1.0000006E-24
 -1.1060000E-03    1.0000006E-24
 -1.1055000E-03    1.0000007E-24
 -1.1050000E-03    1.0000007E-24
 -1.1045000E-03    1.0000007E-24
 -1.1040000E-03    1.0000007E-24
 -1.1035000E-03    1.0000007E-24
 -1.1030000E-03    1.0000006E-24
 -1.1025000E-03    1.0000004E-24
 -1.1020000E-03    1.0000001E-24
 -1.1015000E-03    9.9999963E-25
 -1.1010000E-03    9.9999893E-25
 -1.1005000E-03    9.9999834E-25
 -1.1000000E-03    9.9999775E-25
 -1.0995000E-03    9.9999726E-25
 -1.0990000E-03    9.9999647E-25
 -1.0985000E-03    9.9999588E-25
 -1.0980000E-03    9.9999588E-25
 -1.0975000E-03    9.9999667E-25
 -1.0970000E-03    9.9999755E-25
 -1.0965000E-03    9.9999815E-25
 -1.0960000E-03    9.9999844E-25
 -1.0955000E-03    9.9999913E-25
 -1.0950000E-03    9.9999893E-25
 -1.0945000E-03    9.9999874E-25
 -1.0939999E-03    9.9999805E-25
 -1.0934999E-03    9.9999903E-25
 -1.0930001E-03    1.0000019E-24
 -1.0925001E-03    1.0000048E-24
 -1.0920000E-03    1.0000098E-24
 -1.0915000E-03    1.0000098E-24
 -1.0910000E-03    1.0000075E-24
 -1.0905000E-03    1.0000025E-24
 -1.0900000E-03    9.9999045E-25
 -1.0895000E-03    9.9997438E-25
 -1.0890000E-03    9.9995219E-25
 -1.0885000E-03    9.9992527E-25
 -1.0880000E-03    9.9989135E-25
 -1.0875000E-03    9.9986069E-25
 -1.0870000E-03    9.9983101E-25
 -1.0865000E-03    9.9979324E-25
 -1.0860000E-03    9.9976731E-25
 -1.0855000E-03    9.9975449E-25
 -1.0850000E-03    9.9975064E-25
 -1.0845000E-03    9.9975104E-25
 -1.0840000E-03    9.9980872E-25
 -1.0835000E-03    9.9988337E-25
 -1.0830000E-03    9.9998809E-25
 -1.0825000E-03    1.0001239E-24
 -1.0820000E-03    1.0002729E-24
 -1.0815000E-03    1.0005009E-24
 -1.0810000E-03    1.0006876E-24
 -1.0805000E-03    1.0008629E-24
 -1.0800000E-03    1.0010270E-24
 -1.0795000E-03    1.0011760E-24
 -1.0790000E-03    1.0011819E-24
 -1.0784999E-03    1.0011239E-24
 -1.0779999E-03    1.0008475E-24
 -1.0775001E-03    1.0002567E-24
 -1.0770001E-03    9.9955678E-25
 -1.0765000E-03    9.9857445E-25
 -1.0760000E-03    9.9762229E-25
 -1.0755000E-03    9.9688846E-25
 -1.0750000E-03    9.9577813E-25
 -1.0745000E-03    9.9477322E-25
 -1.0740000E-03    9.9372315E-25
 -1.0735000E-03    9.9267308E-25
 -1.0730000E-03    9.9165318E-25
 -1.0725000E-03    9.9058812E-25
 -1.0720000E-03    9.9001245E-25
 -1.0715000E-03    9.8994500E-25
 -1.0710000E-03    9.9029161E-25
 -1.0705000E-03    9.9108993E-25
 -1.0700000E-03    9.9191844E-25
 -1.0695000E-03    9.9410220E-25
 -1.0690000E-03    9.9676776E-25
 -1.0685000E-03    1.0002766E-24
 -1.0680000E-03    1.0036048E-24
 -1.0675000E-03    1.0066920E-24
 -1.0670000E-03    1.0117671E-24
 -1.0665000E-03    1.0175045E-24
 -1.0660000E-03    1.0233926E-24
 -1.0655000E-03    1.0279556E-24
 -1.0650000E-03    1.0302447E-24
 -1.0645000E-03    1.0308775E-24
 -1.0640000E-03    1.0295828E-24
 -1.0634999E-03    1.0217828E-24
 -1.0629999E-03    1.0137419E-24
 -1.0625001E-03    1.0046167E-24
 -1.0620001E-03    9.9669627E-25
 -1.0615001E-03    9.8612544E-25
 -1.0610000E-03    9.7700029E-25
 -1.0605000E-03    9.6642955E-25
 -1.0600000E-03    9.6079797E-25
 -1.0595000E-03    9.5432310E-25
 -1.0590000E-03    9.4552927E-25
 -1.0585000E-03    9.4101206E-25
 -1.0580000E-03    9.3565155E-25
 -1.0575000E-03    9.2209922E-25
 -1.0570000E-03    8.9650019E-25
 -1.0565000E-03    8.6704619E-25
 -1.0560000E-03    8.4385644E-25
 -1.0555000E-03    8.2789483E-25
 -1.0550000E-03    8.1578823E-25
 -1.0545000E-03    8.1042777E-25
 -1.0540000E-03    8.1759590E-25
 -1.0535000E-03    8.3632884E-25
 -1.0530000E-03    9.0879034E-25
 -1.0525000E-03    9.9722875E-25
 -1.0520000E-03    1.0960275E-24
 -1.0515000E-03    1.2266295E-24
 -1.0510000E-03    1.3369929E-24
 -1.0505000E-03    1.4203717E-24
 -1.0500000E-03    1.4709831E-24
 -1.0495000E-03    1.4714801E-24
 -1.0490000E-03    1.4257176E-24
 -1.0485000E-03    1.2257566E-24
 -1.0479999E-03    9.9495604E-25
 -1.0474999E-03    7.1596858E-25
 -1.0470001E-03    4.1674264E-25
 -1.0465001E-03    1.1125257E-25
 -1.0460000E-03   -1.7929943E-25
 -1.0455000E-03   -4.2359178E-25
 -1.0450000E-03   -5.0212081E-25
 -1.0445000E-03   -4.2259629E-25
 -1.0440000E-03   -2.5055268E-25
 -1.0435000E-03    3.3284769E-26
 -1.0430000E-03    4.7132038E-25
 -1.0425000E-03    9.3248556E-25
 -1.0420000E-03    1.3859409E-24
 -1.0415000E-03    1.7507322E-24
 -1.0410000E-03    2.0538439E-24
 -1.0405000E-03    2.0350661E-24
 -1.0400000E-03    1.7888450E-24
 -1.0395000E-03    1.4655245E-24
 -1.0390000E-03    8.0296712E-25
 -1.0385000E-03    2.0979849E-25
 -1.0380000E-03   -2.7543155E-25
 -1.0375000E-03   -6.6814261E-25
 -1.0370000E-03   -1.1071129E-24
 -1.0365000E-03   -1.2993658E-24
 -1.0360000E-03   -1.3682592E-24
 -1.0355000E-03   -1.2058547E-24
 -1.0350000E-03   -6.3482319E-25
 -1.0345000E-03    1.0310180E-24
 -1.0340000E-03    3.8938249E-24
 -1.0335000E-03    7.3117466E-24
 -1.0329999E-03    1.1516081E-23
 -1.0324999E-03    1.5226981E-23
 -1.0319999E-03    1.7920170E-23
 -1.0315001E-03    1.9965726E-23
 -1.0310001E-03    2.0716013E-23
 -1.0305000E-03    2.0109352E-23
 -1.0300000E-03    1.9564367E-23
 -1.0295000E-03    1.9697854E-23
 -1.0290000E-03    1.9091188E-23
 -1.0285000E-03    1.8052768E-23
 -1.0280000E-03    1.7523201E-23
 -1.0275000E-03    1.7394552E-23
 -1.0270000E-03    1.4860409E-23
 -1.0265000E-03    1.2943063E-23
 -1.0260000E-03    1.0162206E-23
 -1.0255000E-03    4.7908193E-24
 -1.0250000E-03   -3.9112513E-24
 -1.0245000E-03   -1.5697284E-23
 -1.0240000E-03   -2.8100109E-23
 -1.0235000E-03   -4.5128890E-23
 -1.0230000E-03   -6.4655684E-23
 -1.0225000E-03   -8.0111633E-23
 -1.0220000E-03   -9.4580712E-23
 -1.0215000E-03   -1.1139360E-22
 -1.0210000E-03   -1.2228525E-22
 -1.0205000E-03   -1.1442639E-22
 -1.0200000E-03   -1.0360692E-22
 -1.0195000E-03   -8.3412170E-23
 -1.0190000E-03   -5.0388121E-23
 -1.0185000E-03    8.9302614E-25
 -1.0180000E-03    5.1927454E-23
 -1.0174999E-03    1.0518232E-22
 -1.0169999E-03    1.7607746E-22
 -1.0165001E-03    2.4795951E-22
 -1.0160001E-03    3.2822995E-22
 -1.0155000E-03    4.1590191E-22
 -1.0150000E-03    4.9370510E-22
 -1.0145000E-03    5.5177092E-22
 -1.0140000E-03    6.1773166E-22
 -1.0135000E-03    6.3040139E-22
 -1.0130000E-03    5.8089829E-22
 -1.0125000E-03    4.8698603E-22
 -1.0120000E-03    3.5754632E-22
 -1.0115000E-03    1.8073687E-22
 -1.0110000E-03   -4.8160757E-23
 -1.0105000E-03   -3.6834382E-22
 -1.0100000E-03   -7.0332980E-22
 -1.0095000E-03   -9.9686714E-22
 -1.0090000E-03   -1.2746144E-21
 -1.0085000E-03   -1.5128868E-21
 -1.0080000E-03   -1.6327346E-21
 -1.0075000E-03   -1.5591557E-21
 -1.0070000E-03   -1.2882028E-21
 -1.0065000E-03   -8.5145572E-22
 -1.0060000E-03   -3.6733867E-22
 -1.0055000E-03    1.6414799E-22
 -1.0050000E-03    7.6224805E-22
 -1.0045000E-03    1.4807459E-21
 -1.0040000E-03    2.0176595E-21
 -1.0035000E-03    2.5150980E-21
 -1.0030000E-03    2.7046328E-21
 -1.0025000E-03    2.6415284E-21
 -1.0019999E-03    2.1047261E-21
 -1.0014999E-03    1.4100245E-21
 -1.0010001E-03    3.2057459E-22
 -1.0005001E-03   -1.0846737E-21
 -1.0000000E-03   -2.8294050E-21
 -9.9950004E-04   -4.9471734E-21
 -9.9900004E-04   -6.9228313E-21
 -9.9850004E-04   -9.0405978E-21
 -9.9800003E-04   -1.1000464E-20
 -9.9750003E-04   -1.2676111E-20
 -9.9700002E-04   -1.3467521E-20
 -9.9650002E-04   -1.3153635E-20
 -9.9600002E-04   -1.1102858E-20
 -9.9550001E-04   -7.7573079E-21
 -9.9500001E-04   -2.9590848E-21
 -9.9450001E-04    2.6602110E-21
 -9.9400000E-04    8.9268912E-21
 -9.9350000E-04    1.5596213E-20
 -9.9299999E-04    2.1689201E-20
 -9.9249999E-04    2.6455834E-20
 -9.9199999E-04    3.0180331E-20
 -9.9149998E-04    3.3083754E-20
 -9.9099998E-04    3.2892349E-20
 -9.9049998E-04    3.0427193E-20
 -9.8999997E-04    2.6762001E-20
 -9.8949997E-04    1.9875669E-20
 -9.8899996E-04    1.1662981E-20
 -9.8849996E-04    1.3660273E-21
 -9.8799996E-04   -7.9835264E-21
 -9.8749995E-04   -1.6243572E-20
 -9.8699995E-04   -2.4329920E-20
 -9.8649994E-04   -3.0395152E-20
 -9.8600006E-04   -3.0270733E-20
 -9.8550005E-04   -2.3577706E-20
 -9.8500005E-04   -1.5621485E-20
 -9.8450005E-04   -5.3915160E-21
 -9.8400004E-04    7.3648381E-21
 -9.8350004E-04    1.9363272E-20
 -9.8300003E-04    2.9340591E-20
 -9.8250003E-04    3.9065262E-20
 -9.8200003E-04    5.3084778E-20
 -9.8150002E-04    6.1609394E-20
 -9.8100002E-04    6.7797093E-20
 -9.8050002E-04    6.4005556E-20
 -9.8000001E-04    5.3645406E-20
 -9.7950001E-04    4.0253585E-20
 -9.7900000E-04    1.8272040E-20
 -9.7850000E-04   -1.6884020E-21
 -9.7800000E-04   -2.3164671E-20
 -9.7749999E-04   -5.6262298E-20
 -9.7699999E-04   -9.3907385E-20
 -9.7649998E-04   -1.3003661E-19
 -9.7599998E-04   -1.5353387E-19
 -9.7549998E-04   -1.6029379E-19
 -9.7499997E-04   -1.3471594E-19
 -9.7450003E-04   -9.3979757E-20
 -9.7400002E-04   -2.0905791E-20
 -9.7350002E-04    7.6421478E-20
 -9.7300002E-04    2.0507592E-19
 -9.7250001E-04    3.4585701E-19
 -9.7200001E-04    4.8764856E-19
 -9.7150001E-04    6.0821846E-19
 -9.7100000E-04    7.2070391E-19
 -9.7050000E-04    7.7558765E-19
 -9.6999999E-04    7.6023787E-19
 -9.6949999E-04    6.8741268E-19
 -9.6899999E-04    5.3399565E-19
 -9.6849998E-04    3.0125016E-19
 -9.6799998E-04   -1.0318653E-20
 -9.6749997E-04   -3.8656296E-19
 -9.6700003E-04   -7.8099721E-19
 -9.6650003E-04   -1.1289459E-18
 -9.6600002E-04   -1.4162613E-18
 -9.6550002E-04   -1.6429431E-18
 -9.6500001E-04   -1.7948438E-18
 -9.6450001E-04   -1.8234566E-18
 -9.6400001E-04   -1.7166550E-18
 -9.6350000E-04   -1.5317878E-18
 -9.6300000E-04   -1.2842665E-18
 -9.6249999E-04   -1.0266394E-18
 -9.6199999E-04   -7.7305457E-19
 -9.6149999E-04   -4.3054087E-19
 -9.6099998E-04    2.1112630E-20
 -9.6049998E-04    4.7680826E-19
 -9.5999998E-04    9.2846133E-19
 -9.5949997E-04    1.3316077E-18
 -9.5900003E-04    1.6336982E-18
 -9.5850002E-04    1.7336776E-18
 -9.5800002E-04    1.7063271E-18
 -9.5750001E-04    1.6062163E-18
 -9.5700001E-04    1.2191079E-18
 -9.5650001E-04    7.0669054E-19
 -9.5600000E-04    8.5133241E-20
 -9.5550000E-04   -6.0514181E-19
 -9.5500000E-04   -1.3843455E-18
 -9.5449999E-04   -2.1958866E-18
 -9.5399999E-04   -2.9831741E-18
 -9.5349998E-04   -3.6491945E-18
 -9.5299998E-04   -4.0726812E-18
 -9.5249998E-04   -4.2536344E-18
 -9.5199997E-04   -4.1314206E-18
 -9.5150003E-04   -3.5261613E-18
 -9.5100002E-04   -2.3105266E-18
 -9.5050002E-04   -4.3196793E-19
 -9.5000002E-04    1.6891234E-18
 -9.4950001E-04    3.8910584E-18
 -9.4900001E-04    5.9959800E-18
 -9.4850000E-04    8.1332385E-18
 -9.4800000E-04    9.7692611E-18
 -9.4750000E-04    1.0774696E-17
 -9.4699999E-04    1.1222303E-17
 -9.4649999E-04    1.0554256E-17
 -9.4599999E-04    8.7503458E-18
 -9.4549998E-04    5.8307833E-18
 -9.4499998E-04    1.6419640E-18
 -9.4449997E-04   -2.9672464E-18
 -9.4400003E-04   -8.0615211E-18
 -9.4350002E-04   -1.3495340E-17
 -9.4300002E-04   -1.9446561E-17
 -9.4250002E-04   -2.4718688E-17
 -9.4200001E-04   -2.9085354E-17
 -9.4150001E-04   -3.2255521E-17
 -9.4100001E-04   -3.3533929E-17
 -9.4050000E-04   -3.3163107E-17
 -9.4000000E-04   -3.0908609E-17
 -9.3949999E-04   -2.6764372E-17
 -9.3899999E-04   -2.0627322E-17
 -9.3849999E-04   -1.2283220E-17
 -9.3799998E-04   -2.8881437E-18
 -9.3749998E-04    7.4123861E-18
 -9.3699998E-04    1.7421873E-17
 -9.3649997E-04    2.6202521E-17
 -9.3600003E-04    3.3398612E-17
 -9.3550002E-04    3.7813655E-17
 -9.3500002E-04    3.9124270E-17
 -9.3450001E-04    3.6990905E-17
 -9.3400001E-04    3.1041683E-17
 -9.3350001E-04    2.2149721E-17
 -9.3300000E-04    9.7268813E-18
 -9.3250000E-04   -5.4850892E-18
 -9.3200000E-04   -2.2701998E-17
 -9.3149999E-04   -4.0824361E-17
 -9.3099999E-04   -5.7426842E-17
 -9.3049998E-04   -7.2056716E-17
 -9.2999998E-04   -8.3194100E-17
 -9.2949998E-04   -8.9319121E-17
 -9.2899997E-04   -9.0690488E-17
 -9.2850003E-04   -8.6887799E-17
 -9.2800002E-04   -7.6391182E-17
 -9.2750002E-04   -5.7567595E-17
 -9.2700002E-04   -3.2890862E-17
 -9.2650001E-04   -4.2325438E-18
 -9.2600001E-04    2.6293276E-17
 -9.2550000E-04    5.8225779E-17
 -9.2500000E-04    9.1225415E-17
 -9.2450000E-04    1.2270516E-16
 -9.2399999E-04    1.4943124E-16
 -9.2349999E-04    1.6768480E-16
 -9.2299999E-04    1.7733651E-16
 -9.2249998E-04    1.7625205E-16
 -9.2199998E-04    1.6203844E-16
 -9.2149997E-04    1.3236737E-16
 -9.2100003E-04    8.7238861E-17
 -9.2050002E-04    2.7752384E-17
 -9.2000002E-04   -4.4022426E-17
 -9.1950002E-04   -1.2336425E-16
 -9.1900001E-04   -2.0479991E-16
 -9.1850001E-04   -2.8672060E-16
 -9.1800001E-04   -3.6016879E-16
 -9.1750000E-04   -4.1683362E-16
 -9.1700000E-04   -4.4749889E-16
 -9.1649999E-04   -4.4750789E-16
 -9.1599999E-04   -4.1272144E-16
 -9.1549999E-04   -3.4456242E-16
 -9.1499998E-04   -2.4354820E-16
 -9.1449998E-04   -1.1549969E-16
 -9.1399997E-04    3.2210162E-17
 -9.1349997E-04    1.8561143E-16
 -9.1300003E-04    3.3901263E-16
 -9.1250002E-04    4.7708564E-16
 -9.1200002E-04    5.9161667E-16
 -9.1150001E-04    6.7725393E-16
 -9.1100001E-04    7.1554855E-16
 -9.1050001E-04    7.0210275E-16
 -9.1000000E-04    6.3122505E-16
 -9.0950000E-04    5.0369158E-16
 -9.0899999E-04    3.2803958E-16
 -9.0849999E-04    1.1668670E-16
 -9.0799999E-04   -1.1950154E-16
 -9.0749998E-04   -3.5672451E-16
 -9.0699998E-04   -5.8256449E-16
 -9.0649998E-04   -7.8175799E-16
 -9.0599997E-04   -9.3257417E-16
 -9.0550003E-04   -1.0338487E-15
 -9.0500002E-04   -1.0807310E-15
 -9.0450002E-04   -1.0528484E-15
 -9.0400001E-04   -9.4243977E-16
 -9.0350001E-04   -7.4510714E-16
 -9.0300001E-04   -4.7585527E-16
 -9.0250000E-04   -1.3416694E-16
 -9.0200000E-04    2.5460511E-16
 -9.0150000E-04    6.7752567E-16
 -9.0099999E-04    1.0864762E-15
 -9.0049999E-04    1.4762825E-15
 -8.9999998E-04    1.8184876E-15
 -8.9949998E-04    2.0740271E-15
 -8.9899998E-04    2.2073295E-15
 -8.9849997E-04    2.2136092E-15
 -8.9800003E-04    2.0920896E-15
 -8.9750002E-04    1.7956876E-15
 -8.9700002E-04    1.3492381E-15
 -8.9650002E-04    7.6826370E-16
 -8.9600001E-04    8.1739004E-17
 -8.9550001E-04   -6.7101315E-16
 -8.9500000E-04   -1.4216954E-15
 -8.9450000E-04   -2.1434027E-15
 -8.9400000E-04   -2.7957773E-15
 -8.9349999E-04   -3.3156961E-15
 -8.9299999E-04   -3.6522591E-15
 -8.9249999E-04   -3.7828949E-15
 -8.9199998E-04   -3.6662114E-15
 -8.9149998E-04   -3.2928952E-15
 -8.9099997E-04   -2.6153451E-15
 -8.9050003E-04   -1.7080678E-15
 -8.9000002E-04   -5.6899348E-16
 -8.8950002E-04    6.7976999E-16
 -8.8900002E-04    1.9740645E-15
 -8.8850001E-04    3.2145485E-15
 -8.8800001E-04    4.3494807E-15
 -8.8750001E-04    5.2360587E-15
 -8.8700000E-04    5.8132282E-15
 -8.8650000E-04    5.9800954E-15
 -8.8599999E-04    5.7754662E-15
 -8.8549999E-04    5.1941665E-15
 -8.8499999E-04    4.2051522E-15
 -8.8449998E-04    2.7939358E-15
 -8.8399998E-04    1.1012521E-15
 -8.8349998E-04   -8.1494999E-16
 -8.8299997E-04   -2.8222143E-15
 -8.8250003E-04   -4.8025726E-15
 -8.8200002E-04   -6.5759678E-15
 -8.8150002E-04   -8.0689290E-15
 -8.8100001E-04   -9.0724242E-15
 -8.8050001E-04   -9.6226738E-15
 -8.8000001E-04   -9.5478968E-15
 -8.7950000E-04   -8.8232601E-15
 -8.7900000E-04   -7.4570417E-15
 -8.7850000E-04   -5.4864946E-15
 -8.7799999E-04   -2.8578102E-15
 -8.7749999E-04    2.1791089E-16
 -8.7699998E-04    3.5337063E-15
 -8.7649998E-04    6.8991710E-15
 -8.7599998E-04    1.0041116E-14
 -8.7549997E-04    1.2702908E-14
 -8.7500003E-04    1.4669308E-14
 -8.7450002E-04    1.5772157E-14
 -8.7400002E-04    1.5904355E-14
 -8.7350002E-04    1.4873426E-14
 -8.7300001E-04    1.2745600E-14
 -8.7250001E-04    9.5001792E-15
 -8.7200000E-04    5.3275713E-15
 -8.7150000E-04    5.1752247E-16
 -8.7100000E-04   -4.6153851E-15
 -8.7049999E-04   -9.7814043E-15
 -8.6999999E-04   -1.4591447E-14
 -8.6949999E-04   -1.8739210E-14
 -8.6899998E-04   -2.1864577E-14
 -8.6849998E-04   -2.3681425E-14
 -8.6799997E-04   -2.4072305E-14
 -8.6750003E-04   -2.2749540E-14
 -8.6700002E-04   -1.9576536E-14
 -8.6650002E-04   -1.4929962E-14
 -8.6600002E-04   -9.0167826E-15
 -8.6550001E-04   -1.9363406E-15
 -8.6500001E-04    5.9388309E-15
 -8.6450001E-04    1.4186530E-14
 -8.6400000E-04    2.2243819E-14
 -8.6350000E-04    2.9506369E-14
 -8.6299999E-04    3.5361576E-14
 -8.6249999E-04    3.9354123E-14
 -8.6199999E-04    4.1074223E-14
 -8.6149998E-04    3.9887540E-14
 -8.6099998E-04    3.5896524E-14
 -8.6049997E-04    2.9065990E-14
 -8.5999997E-04    1.9309017E-14
 -8.5950003E-04    6.8615445E-15
 -8.5900002E-04   -7.3161243E-15
 -8.5850002E-04   -2.2917684E-14
 -8.5800001E-04   -3.8527514E-14
 -8.5750001E-04   -5.3102532E-14
 -8.5700001E-04   -6.5541688E-14
 -8.5650000E-04   -7.4826748E-14
 -8.5600000E-04   -8.0071895E-14
 -8.5549999E-04   -8.0395488E-14
 -8.5499999E-04   -7.5325657E-14
 -8.5449999E-04   -6.4796171E-14
 -8.5399998E-04   -4.9171289E-14
 -8.5349998E-04   -2.9581023E-14
 -8.5299998E-04   -7.0974352E-15
 -8.5249997E-04    1.6288498E-14
 -8.5200003E-04    3.8970753E-14
 -8.5150002E-04    6.0287041E-14
 -8.5100002E-04    7.8623075E-14
 -8.5050002E-04    9.1942336E-14
 -8.5000001E-04    9.8754704E-14
 -8.4950001E-04    9.8712495E-14
 -8.4900000E-04    9.1318988E-14
 -8.4850000E-04    7.6077484E-14
 -8.4800000E-04    5.5421864E-14
 -8.4749999E-04    2.9136880E-14
 -8.4699999E-04   -1.2169682E-15
 -8.4649998E-04   -3.3259616E-14
 -8.4599998E-04   -6.6378448E-14
 -8.4549998E-04   -9.7311739E-14
 -8.4499997E-04   -1.2259910E-13
 -8.4450003E-04   -1.4103187E-13
 -8.4400002E-04   -1.5151728E-13
 -8.4350002E-04   -1.5283011E-13
 -8.4300002E-04   -1.4381140E-13
 -8.4250001E-04   -1.2429555E-13
 -8.4200001E-04   -9.6070755E-14
 -8.4150000E-04   -5.8938314E-14
 -8.4100000E-04   -1.6623567E-14
 -8.4050000E-04    3.1221184E-14
 -8.3999999E-04    8.2162054E-14
 -8.3949999E-04    1.3139752E-13
 -8.3899999E-04    1.7834809E-13
 -8.3849998E-04    2.2066267E-13
 -8.3799998E-04    2.5204963E-13
 -8.3749997E-04    2.7065459E-13
 -8.3700003E-04    2.7137800E-13
 -8.3650002E-04    2.5415369E-13
 -8.3600002E-04    2.1639873E-13
 -8.3550002E-04    1.6115966E-13
 -8.3500001E-04    8.9959724E-14
 -8.3450001E-04    7.4679880E-15
 -8.3400001E-04   -8.0454381E-14
 -8.3350000E-04   -1.7393980E-13
 -8.3300000E-04   -2.6348460E-13
 -8.3249999E-04   -3.4508198E-13
 -8.3199999E-04   -4.1051974E-13
 -8.3149999E-04   -4.5277768E-13
 -8.3099998E-04   -4.6708747E-13
 -8.3049998E-04   -4.5132981E-13
 -8.2999998E-04   -4.0510732E-13
 -8.2949997E-04   -3.2736045E-13
 -8.2900003E-04   -2.2312251E-13
 -8.2850002E-04   -9.8420255E-14
 -8.2800002E-04    3.9891704E-14
 -8.2750001E-04    1.7913076E-13
 -8.2700001E-04    3.0711100E-13
 -8.2650001E-04    4.2005735E-13
 -8.2600000E-04    5.0081694E-13
 -8.2550000E-04    5.4157487E-13
 -8.2500000E-04    5.3491358E-13
 -8.2449999E-04    4.7659462E-13
 -8.2399999E-04    3.7231359E-13
 -8.2349998E-04    2.2789851E-13
 -8.2299998E-04    5.3548528E-14
 -8.2249998E-04   -1.4391484E-13
 -8.2199997E-04   -3.4296757E-13
 -8.2150003E-04   -5.3263020E-13
 -8.2100002E-04   -6.9679511E-13
 -8.2050002E-04   -8.2758101E-13
 -8.2000002E-04   -9.1333180E-13
 -8.1950001E-04   -9.4398100E-13
 -8.1900001E-04   -9.2164785E-13
 -8.1850000E-04   -8.3653077E-13
 -8.1800000E-04   -7.0346474E-13
 -8.1750000E-04   -5.2139017E-13
 -8.1699999E-04   -2.9785712E-13
 -8.1649999E-04   -4.4521678E-14
 -8.1599999E-04    2.1974118E-13
 -8.1549998E-04    4.7546044E-13
 -8.1499998E-04    7.1121191E-13
 -8.1449997E-04    9.1305446E-13
 -8.1400003E-04    1.0641663E-12
 -8.1350002E-04    1.1442817E-12
 -8.1300002E-04    1.1539308E-12
 -8.1250002E-04    1.0878151E-12
 -8.1200001E-04    9.4196114E-13
 -8.1150001E-04    7.2961450E-13
 -8.1100001E-04    4.5024553E-13
 -8.1050000E-04    1.1551029E-13
 -8.1000000E-04   -2.5233860E-13
 -8.0949999E-04   -6.3171083E-13
 -8.0899999E-04   -1.0040047E-12
 -8.0849999E-04   -1.3316609E-12
 -8.0799998E-04   -1.5926916E-12
 -8.0749998E-04   -1.7906732E-12
 -8.0699997E-04   -1.8959357E-12
 -8.0649997E-04   -1.9161615E-12
 -8.0600003E-04   -1.8349263E-12
 -8.0550002E-04   -1.6546143E-12
 -8.0500002E-04   -1.3640993E-12
 -8.0450001E-04   -9.8219013E-13
 -8.0400001E-04   -5.3113942E-13
 -8.0350001E-04   -2.1543761E-14
 -8.0300000E-04    4.9825058E-13
 -8.0250000E-04    1.0138058E-12
 -8.0200000E-04    1.4684311E-12
 -8.0149999E-04    1.8245091E-12
 -8.0099999E-04    2.0674692E-12
 -8.0049998E-04    2.1557216E-12
 -7.9999998E-04    2.0982721E-12
 -7.9949998E-04    1.8593584E-12
 -7.9899997E-04    1.4699754E-12
 -7.9850003E-04    9.5475960E-13
 -7.9800002E-04    3.3781823E-13
 -7.9750002E-04   -3.3819792E-13
 -7.9700002E-04   -1.0241477E-12
 -7.9650001E-04   -1.6915529E-12
 -7.9600001E-04   -2.2926968E-12
 -7.9550000E-04   -2.7920142E-12
 -7.9500000E-04   -3.1465572E-12
 -7.9450000E-04   -3.3250659E-12
 -7.9399999E-04   -3.3218454E-12
 -7.9349999E-04   -3.1265639E-12
 -7.9299998E-04   -2.7122009E-12
 -7.9249998E-04   -2.0599477E-12
 -7.9199998E-04   -1.2180187E-12
 -7.9149997E-04   -2.4204551E-13
 -7.9100003E-04    7.8002150E-13
 -7.9050002E-04    1.7978490E-12
 -7.9000002E-04    2.7375266E-12
 -7.8950002E-04    3.5320319E-12
 -7.8900001E-04    4.0883807E-12
 -7.8850001E-04    4.2988213E-12
 -7.8800000E-04    4.1751420E-12
 -7.8750000E-04    3.7542317E-12
 -7.8700000E-04    3.0405947E-12
 -7.8649999E-04    2.0268134E-12
 -7.8599999E-04    7.6984415E-13
 -7.8549999E-04   -6.3494446E-13
 -7.8499998E-04   -2.1006612E-12
 -7.8449998E-04   -3.5409453E-12
 -7.8399997E-04   -4.8598985E-12
 -7.8350003E-04   -5.9584442E-12
 -7.8300002E-04   -6.6972387E-12
 -7.8250002E-04   -6.9904512E-12
 -7.8200002E-04   -6.8282801E-12
 -7.8150001E-04   -6.1622474E-12
 -7.8100001E-04   -5.0277191E-12
 -7.8050001E-04   -3.4852279E-12
 -7.8000000E-04   -1.6629914E-12
 -7.7950000E-04    3.8547819E-13
 -7.7899999E-04    2.5303735E-12
 -7.7849999E-04    4.6222848E-12
 -7.7799999E-04    6.4577597E-12
 -7.7749998E-04    7.9117598E-12
 -7.7699998E-04    8.9005747E-12
 -7.7649998E-04    9.4167851E-12
 -7.7599997E-04    9.3417114E-12
 -7.7550003E-04    8.7421138E-12
 -7.7500002E-04    7.4754699E-12
 -7.7450002E-04    5.4840286E-12
 -7.7400001E-04    2.9345539E-12
 -7.7350001E-04    3.8577479E-14
 -7.7300001E-04   -2.9315714E-12
 -7.7250000E-04   -5.8476756E-12
 -7.7200000E-04   -8.4522406E-12
 -7.7150000E-04   -1.0526980E-11
 -7.7099999E-04   -1.1915067E-11
 -7.7049999E-04   -1.2497822E-11
 -7.6999998E-04   -1.2167161E-11
 -7.6949998E-04   -1.1037528E-11
 -7.6899998E-04   -9.2276013E-12
 -7.6849997E-04   -6.9365971E-12
 -7.6800003E-04   -4.1947158E-12
 -7.6750002E-04   -1.4782677E-12
 -7.6700002E-04    1.3176504E-12
 -7.6650002E-04    4.1612490E-12
 -7.6600001E-04    6.7462906E-12
 -7.6550001E-04    8.8523694E-12
 -7.6500000E-04    1.0318419E-11
 -7.6450000E-04    1.1112652E-11
 -7.6400000E-04    1.1084597E-11
 -7.6349999E-04    1.0299954E-11
 -7.6299999E-04    8.6824315E-12
 -7.6249999E-04    6.3570655E-12
 -7.6199998E-04    3.4308830E-12
 -7.6149998E-04    1.6853013E-13
 -7.6099997E-04   -3.2124997E-12
 -7.6050003E-04   -6.6200170E-12
 -7.6000002E-04   -9.8876575E-12
 -7.5950002E-04   -1.2917934E-11
 -7.5900002E-04   -1.5414146E-11
 -7.5850001E-04   -1.7223703E-11
 -7.5800001E-04   -1.8147395E-11
 -7.5750001E-04   -1.8053828E-11
 -7.5700000E-04   -1.6879421E-11
 -7.5650000E-04   -1.4378342E-11
 -7.5599999E-04   -1.0953253E-11
 -7.5549999E-04   -6.5469357E-12
 -7.5499999E-04   -1.5398022E-12
 -7.5449998E-04    3.9367507E-12
 -7.5399998E-04    9.5044285E-12
 -7.5349997E-04    1.4788120E-11
 -7.5299997E-04    1.9486881E-11
 -7.5250003E-04    2.3151425E-11
 -7.5200002E-04    2.5671548E-11
 -7.5150002E-04    2.6572534E-11
 -7.5100001E-04    2.5646691E-11
 -7.5050001E-04    2.2724479E-11
 -7.5000001E-04    1.7916099E-11
 -7.4950000E-04    1.1342352E-11
 -7.4900000E-04    3.5044515E-12
 -7.4850000E-04   -4.9085358E-12
 -7.4799999E-04   -1.3919158E-11
 -7.4749999E-04   -2.2965805E-11
 -7.4699998E-04   -3.0774782E-11
 -7.4649998E-04   -3.7096010E-11
 -7.4599998E-04   -4.1645510E-11