 -1.2000001E-03    1.0000000E-24
 -1.1995001E-03    1.0000000E-24
 -1.1990000E-03    1.0000000E-24
 -1.1985000E-03    1.0000000E-24
 -1.1980000E-03    1.0000000E-24
 -1.1975000E-03    1.0000000E-24
 -1.1970000E-03    1.0000000E-24
 -1.1965000E-03    1.0000000E-24
 -1.1960000E-03    1.0000000E-24
 -1.1955000E-03    1.0000001E-24
 -1.1950000E-03    1.0000002E-24
 -1.1945000E-03    1.0000002E-24
 -1.1940000E-03    1.0000002E-24
 -1.1935000E-03    1.0000002E-24
 -1.1930000E-03    1.0000002E-24
 -1.1925000E-03    1.0000002E-24
 -1.1920000E-03    1.0000002E-24
 -1.1915000E-03    1.0000002E-24
 -1.1910000E-03    1.0000002E-24
 -1.1905000E-03    1.0000002E-24
 -1.1900000E-03    1.0000002E-24
 -1.1895000E-03    1.0000002E-24
 -1.1890000E-03    1.0000002E-24
 -1.1885000E-03    1.0000002E-24
 -1.1880000E-03    1.0000002E-24
 -1.1875000E-03    1.0000002E-24
 -1.1870000E-03    1.0000002E-24
 -1.1865000E-03    1.0000002E-24
 -1.1860000E-03    1.0000002E-24
 -1.1854999E-03    1.0000002E-24
 -1.1849999E-03    1.0000001E-24
 -1.1845001E-03    1.0000000E-24
 -1.1840001E-03    1.0000000E-24
 -1.1835000E-03    1.0000000E-24
 -1.1830000E-03    1.0000000E-24
 -1.1825000E-03    1.0000000E-24
 -1.1820000E-03    1.0000000E-24
 -1.1815000E-03    1.0000000E-24
 -1.1810000E-03    1.0000000E-24
 -1.1805000E-03    1.0000000E-24
 -1.1800000E-03    1.0000000E-24
 -1.1795000E-03    1.0000001E-24
 -1.1790000E-03    1.0000002E-24
 -1.1785000E-03    1.0000003E-24
 -1.1780000E-03    1.0000003E-24
 -1.1775000E-03    1.0000003E-24
 -1.1770000E-03    1.0000003E-24
 -1.1765000E-03    1.0000003E-24
 -1.1760000E-03    1.0000003E-24
 -1.1755000E-03    1.0000003E-24
 -1.1750000E-03    1.0000002E-24
 -1.1745000E-03    1.0000001E-24
 -1.1740000E-03    1.0000000E-24
 -1.1735000E-03    9.9999992E-25
 -1.1730000E-03    9.9999992E-25
 -1.1725000E-03    9.9999992E-25
 -1.1720000E-03    9.9999992E-25
 -1.1715000E-03    9.9999992E-25
 -1.1710000E-03    9.9999992E-25
 -1.1704999E-03    9.9999992E-25
 -1.1699999E-03    9.9999992E-25
 -1.1695001E-03    9.9999992E-25
 -1.1690001E-03    1.0000000E-24
 -1.1685000E-03    1.0000001E-24
 -1.1680000E-03    1.0000002E-24
 -1.1675000E-03    1.0000003E-24
 -1.1670000E-03    1.0000004E-24
 -1.1665000E-03    1.0000004E-24
 -1.1660000E-03    1.0000004E-24
 -1.1655000E-03    1.0000004E-24
 -1.1650000E-03    1.0000004E-24
 -1.1645000E-03    1.0000004E-24
 -1.1640000E-03    1.0000004E-24
 -1.1635000E-03    1.0000004E-24
 -1.1630000E-03    1.0000003E-24
 -1.1625000E-03    1.0000002E-24
 -1.1620000E-03    1.0000001E-24
 -1.1615000E-03    1.0000001E-24
 -1.1610000E-03    1.0000001E-24
 -1.1605000E-03    1.0000001E-24
 -1.1600000E-03    1.0000001E-24
 -1.1595000E-03    1.0000001E-24
 -1.1590000E-03    1.0000001E-24
 -1.1585000E-03    1.0000001E-24
 -1.1580000E-03    1.0000001E-24
 -1.1575000E-03    1.0000002E-24
 -1.1570000E-03    1.0000003E-24
 -1.1565000E-03    1.0000004E-24
 -1.1560000E-03    1.0000004E-24
 -1.1555000E-03    1.0000004E-24
 -1.1549999E-03    1.0000004E-24
 -1.1544999E-03    1.0000004E-24
 -1.1540001E-03    1.0000004E-24
 -1.1535001E-03    1.0000004E-24
 -1.1530000E-03    1.0000003E-24
 -1.1525000E-03    1.0000002E-24
 -1.1520000E-03    1.0000001E-24
 -1.1515000E-03    1.0000000E-24
 -1.1510000E-03    9.9999992E-25
 -1.1505000E-03    9.9999992E-25
 -1.1500000E-03    9.9999992E-25
 -1.1495000E-03    9.9999992E-25
 -1.1490000E-03    9.9999992E-25
 -1.1485000E-03    1.0000000E-24
 -1.1480000E-03    1.0000001E-24
 -1.1475000E-03    1.0000002E-24
 -1.1470000E-03    1.0000003E-24
 -1.1465000E-03    1.0000004E-24
 -1.1460000E-03    1.0000005E-24
 -1.1455000E-03    1.0000005E-24
 -1.1450000E-03    1.0000005E-24
 -1.1445000E-03    1.0000005E-24
 -1.1440000E-03    1.0000004E-24
 -1.1435000E-03    1.0000003E-24
 -1.1430000E-03    1.0000002E-24
 -1.1425000E-03    1.0000001E-24
 -1.1420000E-03    1.0000000E-24
 -1.1415000E-03    9.9999992E-25
 -1.1410000E-03    9.9999982E-25
 -1.1405000E-03    9.9999972E-25
 -1.1399999E-03    9.9999972E-25
 -1.1394999E-03    9.9999972E-25
 -1.1390001E-03    9.9999982E-25
 -1.1385001E-03    9.9999992E-25
 -1.1380001E-03    1.0000000E-24
 -1.1375000E-03    1.0000001E-24
 -1.1370000E-03    1.0000002E-24
 -1.1365000E-03    1.0000003E-24
 -1.1360000E-03    1.0000004E-24
 -1.1355000E-03    1.0000005E-24
 -1.1350000E-03    1.0000005E-24
 -1.1345000E-03    1.0000005E-24
 -1.1340000E-03    1.0000004E-24
 -1.1335000E-03    1.0000002E-24
 -1.1330000E-03    9.9999992E-25
 -1.1325000E-03    9.9999953E-25
 -1.1320000E-03    9.9999913E-25
 -1.1315000E-03    9.9999874E-25
 -1.1310000E-03    9.9999834E-25
 -1.1305000E-03    9.9999815E-25
 -1.1300000E-03    9.9999815E-25
 -1.1295000E-03    9.9999864E-25
 -1.1290000E-03    9.9999972E-25
 -1.1285000E-03    1.0000017E-24
 -1.1280000E-03    1.0000048E-24
 -1.1275000E-03    1.0000092E-24
 -1.1270000E-03    1.0000151E-24
 -1.1265000E-03    1.0000226E-24
 -1.1260000E-03    1.0000316E-24
 -1.1255000E-03    1.0000415E-24
 -1.1250000E-03    1.0000516E-24
 -1.1244999E-03    1.0000603E-24
 -1.1239999E-03    1.0000655E-24
 -1.1235001E-03    1.0000642E-24
 -1.1230001E-03    1.0000529E-24
 -1.1225000E-03    1.0000269E-24
 -1.1220000E-03    9.9998148E-25
 -1.1215000E-03    9.9991147E-25
 -1.1210000E-03    9.9981247E-25
 -1.1205000E-03    9.9968171E-25
 -1.1200000E-03    9.9951901E-25
 -1.1195000E-03    9.9932880E-25
 -1.1190000E-03    9.9912152E-25
 -1.1185000E-03    9.9891583E-25
 -1.1180000E-03    9.9874021E-25
 -1.1175000E-03    9.9863499E-25
 -1.1170000E-03    9.9865235E-25
 -1.1165000E-03    9.9885597E-25
 -1.1160000E-03    9.9931874E-25
 -1.1155000E-03    1.0001181E-24
 -1.1150000E-03    1.0013277E-24
 -1.1145000E-03    1.0030066E-24
 -1.1140000E-03    1.0051839E-24
 -1.1135000E-03    1.0078400E-24
 -1.1130000E-03    1.0108851E-24
 -1.1125000E-03    1.0141359E-24
 -1.1120000E-03    1.0172927E-24
 -1.1115000E-03    1.0199208E-24
 -1.1110000E-03    1.0214390E-24
 -1.1105000E-03    1.0211212E-24
 -1.1100000E-03    1.0181165E-24
 -1.1094999E-03    1.0114948E-24
 -1.1089999E-03    1.0003212E-24
 -1.1084999E-03    9.8376674E-25
 -1.1080001E-03    9.6125551E-25
 -1.1075001E-03    9.3264875E-25
 -1.1070000E-03    8.9845775E-25
 -1.1065000E-03    8.6007542E-25
 -1.1060000E-03    8.2000627E-25
 -1.1055000E-03    7.8206512E-25
 -1.1050000E-03    7.5151155E-25
 -1.1045000E-03    7.3507346E-25
 -1.1040000E-03    7.4081282E-25
 -1.1035000E-03    7.7778126E-25
 -1.1030000E-03    8.5541848E-25
 -1.1025000E-03    9.8265583E-25
 -1.1020000E-03    1.1667061E-24
 -1.1015000E-03    1.4115481E-24
 -1.1010000E-03    1.7161549E-24
 -1.1005000E-03    2.0725591E-24
 -1.1000000E-03    2.4639078E-24
 -1.0995000E-03    2.8627178E-24
 -1.0990000E-03    3.2296013E-24
 -1.0985000E-03    3.5127881E-24
 -1.0980000E-03    3.6488004E-24
 -1.0975000E-03    3.5646534E-24
 -1.0970000E-03    3.1819223E-24
 -1.0965000E-03    2.4229405E-24
 -1.0960000E-03    1.2192707E-24
 -1.0955000E-03   -4.7761233E-25
 -1.0950000E-03   -2.6837454E-24
 -1.0945000E-03   -5.3688410E-24
 -1.0939999E-03   -8.4421906E-24
 -1.0934999E-03   -1.1739695E-23
 -1.0930001E-03   -1.5013776E-23
 -1.0925001E-03   -1.7928267E-23
 -1.0920000E-03   -2.0060547E-23
 -1.0915000E-03   -2.0913301E-23
 -1.0910000E-03   -1.9938007E-23
 -1.0905000E-03   -1.6571876E-23
 -1.0900000E-03   -1.0289094E-23
 -1.0895000E-03   -6.6606430E-25
 -1.0890000E-03    1.2541152E-23
 -1.0885000E-03    2.9310919E-23
 -1.0880000E-03    4.9267368E-23
 -1.0875000E-03    7.1596959E-23
 -1.0870000E-03    9.4980349E-23
 -1.0865000E-03    1.1755124E-22
 -1.0860000E-03    1.3689532E-22
 -1.0855000E-03    1.5010209E-22
 -1.0850000E-03    1.5388201E-22
 -1.0845000E-03    1.4475796E-22
 -1.0840000E-03    1.1933647E-22
 -1.0835000E-03    7.4657279E-23
 -1.0830000E-03    8.6123597E-24
 -1.0825000E-03   -7.9584662E-23
 -1.0820000E-03   -1.8890771E-22
 -1.0815000E-03   -3.1604689E-22
 -1.0810000E-03   -4.5500709E-22
 -1.0805000E-03   -5.9683621E-22
 -1.0800000E-03   -7.2954826E-22
 -1.0795000E-03   -8.3830635E-22
 -1.0790000E-03   -9.0592695E-22
 -1.0784999E-03   -9.1375245E-22
 -1.0779999E-03   -8.4292052E-22
 -1.0775001E-03   -6.7602572E-22
 -1.0770001E-03   -3.9913673E-22
 -1.0765000E-03   -4.0818819E-24
 -1.0760000E-03    5.0912881E-22
 -1.0755000E-03    1.1299297E-21
 -1.0750000E-03    1.8351058E-21
 -1.0745000E-03    2.5872491E-21
 -1.0740000E-03    3.3340619E-21
 -1.0735000E-03    4.0088052E-21
 -1.0730000E-03    4.5321723E-21
 -1.0725000E-03    4.8158100E-21
 -1.0720000E-03    4.7676211E-21
 -1.0715000E-03    4.2988601E-21
 -1.0710000E-03    3.3328706E-21
 -1.0705000E-03    1.8151263E-21
 -1.0700000E-03   -2.7597381E-22
 -1.0695000E-03   -2.9183110E-21
 -1.0690000E-03   -6.0362184E-21
 -1.0685000E-03   -9.4927392E-21
 -1.0680000E-03   -1.3085210E-20
 -1.0675000E-03   -1.6545428E-20
 -1.0670000E-03   -1.9545570E-20
 -1.0665000E-03   -2.1710854E-20
 -1.0660000E-03   -2.2639550E-20
 -1.0655000E-03   -2.1930484E-20
 -1.0650000E-03   -1.9217543E-20
 -1.0645000E-03   -1.4209971E-20
 -1.0640000E-03   -6.7363881E-21
 -1.0634999E-03    3.2103306E-21
 -1.0629999E-03    1.5430970E-20
 -1.0625001E-03    2.9485050E-20
 -1.0620001E-03    4.4667831E-20
 -1.0615001E-03    6.0004128E-20
 -1.0610000E-03    7.4263720E-20
 -1.0605000E-03    8.6002156E-20
 -1.0600000E-03    9.3629782E-20
 -1.0595000E-03    9.5509873E-20
 -1.0590000E-03    9.0084492E-20
 -1.0585000E-03    7.6024128E-20
 -1.0580000E-03    5.2393911E-20
 -1.0575000E-03    1.8826382E-20
 -1.0570000E-03   -2.4312447E-20
 -1.0565000E-03   -7.5779315E-20
 -1.0560000E-03   -1.3334970E-19
 -1.0555000E-03   -1.9377165E-19
 -1.0550000E-03   -2.5279521E-19
 -1.0545000E-03   -3.0529189E-19
 -1.0540000E-03   -3.4547596E-19
 -1.0535000E-03   -3.6723149E-19
 -1.0530000E-03   -3.6454279E-19
 -1.0525000E-03   -3.3201507E-19
 -1.0520000E-03   -2.6546255E-19
 -1.0515000E-03   -1.6252969E-19
 -1.0510000E-03   -2.3300990E-20
 -1.0505000E-03    1.4915471E-19
 -1.0500000E-03    3.4836590E-19
 -1.0495000E-03    5.6422931E-19
 -1.0490000E-03    7.8303207E-19
 -1.0485000E-03    9.8777928E-19
 -1.0479999E-03    1.1588668E-18
 -1.0474999E-03    1.2751206E-18
 -1.0470001E-03    1.3151949E-18
 -1.0465001E-03    1.2592919E-18
 -1.0460000E-03    1.0911283E-18
 -1.0455000E-03    8.0003756E-19
 -1.0450000E-03    3.8306209E-19
 -1.0445000E-03   -1.5314560E-19
 -1.0440000E-03   -7.9081067E-19
 -1.0435000E-03   -1.5001261E-18
 -1.0430000E-03   -2.2391490E-18
 -1.0425000E-03   -2.9546867E-18
 -1.0420000E-03   -3.5843068E-18
 -1.0415000E-03   -4.0595419E-18
 -1.0410000E-03   -4.3102703E-18
 -1.0405000E-03   -4.2701520E-18
 -1.0400000E-03   -3.8828830E-18
 -1.0395000E-03   -3.1089064E-18
 -1.0390000E-03   -1.9321175E-18
 -1.0385000E-03   -3.6598273E-19
 -1.0380000E-03    1.5415602E-18
 -1.0375000E-03    3.7050855E-18
 -1.0370000E-03    6.0011937E-18
 -1.0365000E-03    8.2711096E-18
 -1.0360000E-03    1.0326774E-17
 -1.0355000E-03    1.1960617E-17
 -1.0350000E-03    1.2958921E-17
 -1.0345000E-03    1.3118352E-17
 -1.0340000E-03    1.2264897E-17
 -1.0335000E-03    1.0274035E-17
 -1.0329999E-03    7.0906973E-18
 -1.0324999E-03    2.7472478E-18
 -1.0319999E-03   -2.6224649E-18
 -1.0315001E-03   -8.7749230E-18
 -1.0310001E-03   -1.5356501E-17
 -1.0305000E-03   -2.1912299E-17
 -1.0300000E-03   -2.7905266E-17
 -1.0295000E-03   -3.2745953E-17
 -1.0290000E-03   -3.5832342E-17
 -1.0285000E-03   -3.6598212E-17
 -1.0280000E-03   -3.4567471E-17
 -1.0275000E-03   -2.9410827E-17
 -1.0270000E-03   -2.1000311E-17
 -1.0265000E-03   -9.4564785E-18
 -1.0260000E-03    4.8171992E-18
 -1.0255000E-03    2.1118153E-17
 -1.0250000E-03    3.8451530E-17
 -1.0245000E-03    5.5563621E-17
 -1.0240000E-03    7.1003814E-17
 -1.0235000E-03    8.3214806E-17
 -1.0230000E-03    9.0648156E-17
 -1.0225000E-03    9.1899541E-17
 -1.0220000E-03    8.5855127E-17
 -1.0215000E-03    7.1837956E-17
 -1.0210000E-03    4.9741275E-17
 -1.0205000E-03    2.0134383E-17
 -1.0200000E-03   -1.5673359E-17
 -1.0195000E-03   -5.5623628E-17
 -1.0190000E-03   -9.6965903E-17
 -1.0185000E-03   -1.3638621E-16
 -1.0180000E-03   -1.7020898E-16
 -1.0174999E-03   -1.9466588E-16
 -1.0169999E-03   -2.0621926E-16
 -1.0165001E-03   -2.0191925E-16
 -1.0160001E-03   -1.7976759E-16
 -1.0155000E-03   -1.3905552E-16
 -1.0150000E-03   -8.0639416E-17
 -1.0145000E-03   -7.1175815E-18
 -1.0140000E-03    7.7125817E-17
 -1.0135000E-03    1.6603708E-16
 -1.0130000E-03    2.5218662E-16
 -1.0125000E-03    3.2724313E-16
 -1.0120000E-03    3.8261468E-16
 -1.0115000E-03    4.1022441E-16
 -1.0110000E-03    4.0337038E-16
 -1.0105000E-03    3.5760071E-16
 -1.0100000E-03    2.7152239E-16
 -1.0095000E-03    1.4745265E-16
 -1.0090000E-03   -8.1785696E-18
 -1.0085000E-03   -1.8475980E-16
 -1.0080000E-03   -3.6782967E-16
 -1.0075000E-03   -5.3984920E-16
 -1.0070000E-03   -6.8141895E-16
 -1.0065000E-03   -7.7290242E-16
 -1.0060000E-03   -7.9636900E-16
 -1.0055000E-03   -7.3772266E-16
 -1.0050000E-03   -5.8883920E-16
 -1.0045000E-03   -3.4950033E-16
 -1.0040000E-03   -2.8892191E-17
 -1.0035000E-03    3.5356235E-16
 -1.0030000E-03    7.6824898E-16
 -1.0025000E-03    1.1764474E-15
 -1.0019999E-03    1.5325479E-15
 -1.0014999E-03    1.7873952E-15
 -1.0010001E-03    1.8926447E-15
 -1.0005001E-03    1.8058882E-15
 -1.0000000E-03    1.4961944E-15
 -9.9950004E-04    9.4958439E-16
 -9.9900004E-04    1.7389072E-16
 -9.9850004E-04   -7.9760529E-16
 -9.9800003E-04   -1.9043619E-15
 -9.9750003E-04   -3.0591243E-15
 -9.9700002E-04   -4.1512488E-15
 -9.9650002E-04   -5.0530153E-15
 -9.9600002E-04   -5.6289024E-15
 -9.9550001E-04   -5.7475035E-15
 -9.9500001E-04   -5.2954276E-15
 -9.9450001E-04   -4.1922350E-15
 -9.9400000E-04   -2.4051473E-15
 -9.9350000E-04    3.7925248E-17
 -9.9299999E-04    3.0386432E-15
 -9.9249999E-04    6.4233545E-15
 -9.9199999E-04    9.9444895E-15
 -9.9149998E-04    1.3289331E-14
 -9.9099998E-04    1.6096752E-14
 -9.9049998E-04    1.7981876E-14
 -9.8999997E-04    1.8567855E-14
 -9.8949997E-04    1.7523136E-14
 -9.8899996E-04    1.4601766E-14
 -9.8849996E-04    9.6835000E-15
 -9.8799996E-04    2.8099867E-15
 -9.8749995E-04   -5.7871739E-15
 -9.8699995E-04   -1.5670575E-14
 -9.8649994E-04   -2.6197171E-14
 -9.8600006E-04   -3.6537420E-14
 -9.8550005E-04   -4.5715212E-14
 -9.8500005E-04   -5.2668753E-14
 -9.8450005E-04   -5.6330717E-14
 -9.8400004E-04   -5.5723878E-14
 -9.8350004E-04   -5.0066335E-14
 -9.8300003E-04   -3.8878565E-14
 -9.8250003E-04   -2.2082840E-14
 -9.8200003E-04   -8.4761323E-17
 -9.8150002E-04    2.6173748E-14
 -9.8100002E-04    5.5199799E-14
 -9.8050002E-04    8.4981386E-14
 -9.8000001E-04    1.1307108E-13
 -9.7950001E-04    1.3672319E-13
 -9.7900000E-04    1.5308161E-13
 -9.7850000E-04    1.5941026E-13
 -9.7800000E-04    1.5335343E-13
 -9.7749999E-04    1.3320764E-13
 -9.7699999E-04    9.8183506E-14
 -9.7649998E-04    4.8632458E-14
 -9.7599998E-04   -1.3787245E-14
 -9.7549998E-04   -8.6030196E-14
 -9.7499997E-04   -1.6369036E-13
 -9.7450003E-04   -2.4115001E-13
 -9.7400002E-04   -3.1185815E-13
 -9.7350002E-04   -3.6873559E-13
 -9.7300002E-04   -4.0469201E-13
 -9.7250001E-04   -4.1322861E-13
 -9.7200001E-04   -3.8908780E-13
 -9.7150001E-04   -3.2890105E-13
 -9.7100000E-04   -2.3177982E-13
 -9.7050000E-04   -9.9788254E-14
 -9.6999999E-04    6.1760452E-14
 -9.6949999E-04    2.4423765E-13
 -9.6899999E-04    4.3590411E-13
 -9.6849998E-04    6.2241038E-13
 -9.6799998E-04    7.8759601E-13
 -9.6749997E-04    9.1456421E-13
 -9.6700003E-04    9.8698350E-13
 -9.6650003E-04    9.9053806E-13
 -9.6600002E-04    9.1442847E-13
 -9.6550002E-04    7.5280098E-13
 -9.6500001E-04    5.0597433E-13
 -9.6450001E-04    1.8133123E-13
 -9.6400001E-04   -2.0625137E-13
 -9.6350000E-04   -6.3453561E-13
 -9.6300000E-04   -1.0746906E-12
 -9.6249999E-04   -1.4927217E-12
 -9.6199999E-04   -1.8515350E-12
 -9.6149999E-04   -2.1135550E-12
 -9.6099998E-04   -2.2437544E-12
 -9.6049998E-04   -2.2128978E-12
 -9.5999998E-04   -2.0007624E-12
 -9.5949997E-04   -1.5990561E-12
 -9.5900003E-04   -1.0137569E-12
 -9.5850002E-04   -2.6658978E-13
 -9.5800002E-04    6.0459331E-13
 -9.5750001E-04    1.5467136E-12
 -9.5700001E-04    2.4937435E-12
 -9.5650001E-04    3.3703561E-12
 -9.5600000E-04    4.0968292E-12
 -9.5550000E-04    4.5949598E-12
 -9.5500000E-04    4.7946343E-12
 -9.5449999E-04    4.6405974E-12
 -9.5399999E-04    4.0988818E-12
 -9.5349998E-04    3.1623326E-12
 -9.5299998E-04    1.8546421E-12
 -9.5249998E-04    2.3238228E-13
 -9.5199997E-04   -1.6153902E-12
 -9.5150003E-04   -3.5702305E-12
 -9.5100002E-04   -5.4901869E-12
 -9.5050002E-04   -7.2183292E-12
 -9.5000002E-04   -8.5935590E-12
 -9.4950001E-04   -9.4630805E-12
 -9.4900001E-04   -9.6957390E-12
 -9.4850000E-04   -9.1952097E-12
 -9.4800000E-04   -7.9119706E-12
 -9.4750000E-04   -5.8529180E-12
 -9.4699999E-04   -3.0875556E-12
 -9.4649999E-04    2.5013151E-13
 -9.4599999E-04    3.9648011E-12
 -9.4549998E-04    7.8081942E-12
 -9.4499998E-04    1.1492822E-11
 -9.4449997E-04    1.4710400E-11
 -9.4400003E-04    1.7154066E-11
 -9.4350002E-04    1.8543018E-11
 -9.4300002E-04    1.8647858E-11
 -9.4250002E-04    1.7314646E-11
 -9.4200001E-04    1.4485602E-11
 -9.4150001E-04    1.0214388E-11
 -9.4100001E-04    4.6741760E-12
 -9.4050000E-04   -1.8429800E-12
 -9.4000000E-04   -8.9363187E-12
 -9.3949999E-04   -1.6116325E-11
 -9.3899999E-04   -2.2833891E-11
 -9.3849999E-04   -2.8517320E-11
 -9.3799998E-04   -3.2615036E-11
 -9.3749998E-04   -3.4641144E-11
 -9.3699998E-04   -3.4220536E-11
 -9.3649997E-04   -3.1129835E-11
 -9.3600003E-04   -2.5330526E-11
 -9.3550002E-04   -1.6990792E-11
 -9.3500002E-04   -6.4932499E-12
 -9.3450001E-04    5.5735087E-12
 -9.3400001E-04    1.8440430E-11
 -9.3350001E-04    3.1200240E-11
 -9.3300000E-04    4.2864667E-11
 -9.3250000E-04    5.2433516E-11
 -9.3200000E-04    5.8971342E-11
 -9.3149999E-04    6.1686219E-11
 -9.3099999E-04    6.0004737E-11
 -9.3049998E-04    5.3636796E-11
 -9.2999998E-04    4.2624300E-11
 -9.2949998E-04    2.7368359E-11
 -9.2899997E-04    8.6309553E-12
 -9.2850003E-04   -1.2491307E-11
 -9.2800002E-04   -3.4621767E-11
 -9.2750002E-04   -5.6184779E-11
 -9.2700002E-04   -7.5509168E-11
 -9.2650001E-04   -9.0947971E-11
 -9.2600001E-04   -1.0100634E-10
 -9.2550000E-04   -1.0446843E-10
 -9.2500000E-04   -1.0051319E-10
 -9.2450000E-04   -8.8809272E-11
 -9.2399999E-04   -6.9579890E-11
 -9.2349999E-04   -4.3630290E-11
 -9.2299999E-04   -1.2332818E-11
 -9.2249998E-04    2.2432512E-11
 -9.2199998E-04    5.8380738E-11
 -9.2149997E-04    9.2963186E-11
 -9.2100003E-04    1.2353914E-10
 -9.2050002E-04    1.4756704E-10
 -9.2000002E-04    1.6280169E-10
 -9.1950002E-04    1.6748283E-10
 -9.1900001E-04    1.6050020E-10
 -9.1850001E-04    1.4152060E-10
 -9.1800001E-04    1.1106503E-10
 -9.1750000E-04    7.0526522E-11
 -9.1700000E-04    2.2123969E-11
 -9.1649999E-04   -3.1208803E-11
 -9.1599999E-04   -8.5993997E-11
 -9.1549999E-04   -1.3843143E-10
 -9.1499998E-04   -1.8465691E-10
 -9.1449998E-04   -2.2101986E-10
 -9.1399997E-04   -2.4436028E-10
 -9.1349997E-04   -2.5226451E-10
 -9.1300003E-04   -2.4327881E-10
 -9.1250002E-04   -2.1706383E-10
 -9.1200002E-04   -1.7447435E-10
 -9.1150001E-04   -1.1755623E-10
 -9.1100001E-04   -4.9456380E-11
 -9.1050001E-04    2.5750631E-11
 -9.1000000E-04    1.0330996E-10
 -9.0950000E-04    1.7809229E-10
 -9.0899999E-04    2.4493732E-10
 -9.0849999E-04    2.9901137E-10
 -9.0799999E-04    3.3615294E-10
 -9.0749998E-04    3.5318101E-10
 -9.0699998E-04    3.4814249E-10
 -9.0649998E-04    3.2048014E-10
 -9.0599997E-04    2.7110689E-10
 -9.0550003E-04    2.0238004E-10
 -9.0500002E-04    1.1797627E-10
 -9.0450002E-04    2.2675164E-11
 -9.0400001E-04   -7.7933521E-11
 -9.0350001E-04   -1.7779837E-10
 -9.0300001E-04   -2.7078600E-10
 -9.0250000E-04   -3.5106540E-10
 -9.0200000E-04   -4.1347037E-10
 -9.0150000E-04   -4.5381587E-10
 -9.0099999E-04   -4.6914811E-10
 -9.0049999E-04   -4.5791393E-10
 -8.9999998E-04   -4.2004178E-10
 -8.9949998E-04   -3.5693307E-10
 -8.9899998E-04   -2.7136962E-10
 -8.9849997E-04   -1.6734886E-10
 -8.9800003E-04   -4.9862309E-11
 -8.9750002E-04    7.5364513E-11
 -8.9700002E-04    2.0215193E-10
 -8.9650002E-04    3.2414840E-10
 -8.9600001E-04    4.3510079E-10
 -8.9550001E-04    5.2910276E-10
 -8.9500000E-04    6.0081567E-10
 -8.9450000E-04    6.4566119E-10
 -8.9400000E-04    6.5998917E-10
 -8.9349999E-04    6.4122563E-10
 -8.9299999E-04    5.8800764E-10
 -8.9249999E-04    5.0030957E-10
 -8.9199998E-04    3.7956144E-10
 -8.9149998E-04    2.2875631E-10
 -8.9099997E-04    5.2535629E-11
 -8.9050003E-04   -1.4276302E-10
 -8.9000002E-04   -3.4911821E-10
 -8.8950002E-04   -5.5692156E-10
 -8.8900002E-04   -7.5518575E-10
 -8.8850001E-04   -9.3188535E-10
 -8.8800001E-04   -1.0744462E-09
 -8.8750001E-04   -1.1703876E-09
 -8.8700000E-04   -1.2081044E-09
 -8.8650000E-04   -1.1777626E-09
 -8.8599999E-04   -1.0722577E-09
 -8.8549999E-04   -8.8817254E-10
 -8.8499999E-04   -6.2665118E-10
 -8.8449998E-04   -2.9409994E-10
 -8.8399998E-04    9.7380749E-11
 -8.8349998E-04    5.2992100E-10
 -8.8299997E-04    9.8023700E-10
 -8.8250003E-04    1.4204656E-09
 -8.8200002E-04    1.8194933E-09
 -8.8150002E-04    2.1447530E-09
 -8.8100001E-04    2.3644184E-09
 -8.8050001E-04    2.4498763E-09
 -8.8000001E-04    2.3783202E-09
 -8.7950000E-04    2.1352684E-09
 -8.7900000E-04    1.7167892E-09
 -8.7850000E-04    1.1312123E-09
 -8.7799999E-04    4.0011225E-10
 -8.7749999E-04   -4.4161558E-10
 -8.7699998E-04   -1.3467103E-09
 -8.7649998E-04   -2.2575932E-09
 -8.7599998E-04   -3.1094805E-09
 -8.7549997E-04   -3.8344390E-09
 -8.7500003E-04   -4.3661808E-09
 -8.7450002E-04   -4.6452873E-09
 -8.7400002E-04   -4.6245088E-09
 -8.7350002E-04   -4.2737058E-09
 -8.7300001E-04   -3.5840078E-09
 -8.7250001E-04   -2.5707620E-09
 -8.7200000E-04   -1.2749140E-09
 -8.7150000E-04    2.3747018E-10
 -8.7100000E-04    1.8776829E-09
 -8.7049999E-04    3.5388701E-09
 -8.6999999E-04    5.1023843E-09
 -8.6949999E-04    6.4456738E-09
 -8.6899998E-04    7.4512263E-09
 -8.6849998E-04    8.0159621E-09
 -8.6799997E-04    8.0603613E-09
 -8.6750003E-04    7.5365989E-09
 -8.6700002E-04    6.4349175E-09
 -8.6650002E-04    4.7876192E-09
 -8.6600002E-04    2.6701155E-09
 -8.6550001E-04    1.9873271E-10
 -8.6500001E-04   -2.4748386E-09
 -8.6450001E-04   -5.1722808E-09
 -8.6400000E-04   -7.7001348E-09
 -8.6350000E-04   -9.8633350E-09
 -8.6299999E-04   -1.1479893E-08
 -8.6249999E-04   -1.2395637E-08
 -8.6199999E-04   -1.2497849E-08
 -8.6149998E-04   -1.1726645E-08
 -8.6099998E-04   -1.0083031E-08
 -8.6049997E-04   -7.6327664E-09
 -8.5999997E-04   -4.5054414E-09
 -8.5950003E-04   -8.8852831E-10
 -8.5900002E-04    2.9834397E-09
 -8.5850002E-04    6.8440236E-09
 -8.5800001E-04    1.0413416E-08
 -8.5750001E-04    1.3419084E-08
 -8.5700001E-04    1.5617003E-08
 -8.5650000E-04    1.6811795E-08
 -8.5600000E-04    1.6874113E-08
 -8.5549999E-04    1.5753715E-08
 -8.5499999E-04    1.3486925E-08
 -8.5449999E-04    1.0197629E-08
 -8.5399998E-04    6.0913279E-09
 -8.5349998E-04    1.4424697E-09
 -8.5299998E-04   -3.4243111E-09
 -8.5249997E-04   -8.1577411E-09
 -8.5200003E-04   -1.2406566E-08
 -8.5150002E-04   -1.5847238E-08
 -8.5100002E-04   -1.8210397E-08
 -8.5050002E-04   -1.9303892E-08
 -8.5000001E-04   -1.9030276E-08
 -8.4950001E-04   -1.7397062E-08
 -8.4900000E-04   -1.4518623E-08
 -8.4850000E-04   -1.0609206E-08
 -8.4800000E-04   -5.9673479E-09
 -8.4749999E-04   -9.5268604E-10
 -8.4699999E-04    4.0430952E-09
 -8.4649998E-04    8.6288852E-09
 -8.4599998E-04    1.2447585E-08
 -8.4549998E-04    1.5207444E-08
 -8.4499997E-04    1.6708418E-08
 -8.4450003E-04    1.6860994E-08
 -8.4400002E-04    1.5695498E-08
 -8.4350002E-04    1.3360643E-08
 -8.4300002E-04    1.0111070E-08
 -8.4250001E-04    6.2845538E-09
 -8.4200001E-04    2.2706006E-09
 -8.4150000E-04   -1.5269599E-09
 -8.4100000E-04   -4.7301030E-09
 -8.4050000E-04   -7.0257107E-09
 -8.3999999E-04   -8.1998044E-09
 -8.3949999E-04   -8.1632976E-09
 -8.3899999E-04   -6.9662578E-09
 -8.3849998E-04   -4.7985833E-09
 -8.3799998E-04   -1.9761837E-09
 -8.3749997E-04    1.0869242E-09
 -8.3700003E-04    3.9187649E-09
 -8.3650002E-04    6.0386687E-09
 -8.3600002E-04    7.0113737E-09
 -8.3550002E-04    6.5009096E-09
 -8.3500001E-04    4.3188169E-09
 -8.3450001E-04    4.6136198E-10
 -8.3400001E-04   -4.8689563E-09
 -8.3350000E-04   -1.1261212E-08
 -8.3300000E-04   -1.8115205E-08
 -8.3249999E-04   -2.4682160E-08
 -8.3199999E-04   -3.0125051E-08
 -8.3149999E-04   -3.3594684E-08
 -8.3099998E-04   -3.4315754E-08
 -8.3049998E-04   -3.1675540E-08
 -8.2999998E-04   -2.5307159E-08
 -8.2949997E-04   -1.5158779E-08
 -8.2900003E-04   -1.5408735E-09
 -8.2850002E-04    1.4855261E-08
 -8.2800002E-04    3.2972487E-08
 -8.2750001E-04    5.1438452E-08
 -8.2700001E-04    6.8651062E-08
 -8.2650001E-04    8.2894694E-08
 -8.2600000E-04    9.2479965E-08
 -8.2550000E-04    9.5897065E-08
 -8.2500000E-04    9.1970442E-08
 -8.2449999E-04    8.0001506E-08
 -8.2399999E-04    5.9885565E-08
 -8.2349998E-04    3.2190318E-08
 -8.2299998E-04   -1.8147412E-09
 -8.2249998E-04   -4.0185338E-08
 -8.2199997E-04   -8.0389199E-08
 -8.2150003E-04   -1.1945103E-07
 -8.2100002E-04   -1.5414911E-07
 -8.2050002E-04   -1.8125210E-07
 -8.2000002E-04   -1.9778014E-07
 -8.1950001E-04   -2.0127082E-07
 -8.1900001E-04   -1.9002906E-07
 -8.1850000E-04   -1.6333838E-07
 -8.1800000E-04   -1.2161367E-07
 -8.1750000E-04   -6.6477284E-08
 -8.1699999E-04   -7.4612744E-10
 -8.1649999E-04    7.1677142E-08
 -8.1599999E-04    1.4600812E-07
 -8.1549998E-04    2.1687164E-07
 -8.1499998E-04    2.7866398E-07
 -8.1449997E-04    3.2596336E-07
 -8.1400003E-04    3.5396067E-07
 -8.1350002E-04    3.5887777E-07
 -8.1300002E-04    3.3834058E-07
 -8.1250002E-04    2.9167396E-07
 -8.1200001E-04    2.2008963E-07
 -8.1150001E-04    1.2674522E-07
 -8.1100001E-04    1.6659637E-08
 -8.1050000E-04   -1.0351842E-07
 -8.1000000E-04   -2.2588223E-07
 -8.0949999E-04   -3.4176023E-07
 -8.0899999E-04   -4.4230183E-07
 -8.0849999E-04   -5.1911803E-07
 -8.0799998E-04   -5.6493195E-07
 -8.0749998E-04   -5.7419112E-07
 -8.0699997E-04   -5.4359333E-07
 -8.0649997E-04   -4.7248156E-07
 -8.0600003E-04   -3.6306923E-07
 -8.0550002E-04   -2.2046983E-07
 -8.0500002E-04   -5.2515947E-08
 -8.0450001E-04    1.3063126E-07
 -8.0400001E-04    3.1706602E-07
 -8.0350001E-04    4.9388353E-07
 -8.0300000E-04    6.4804181E-07
 -8.0250000E-04    7.6728452E-07
 -8.0200000E-04    8.4105920E-07
 -8.0149999E-04    8.6136629E-07
 -8.0099999E-04    8.2347225E-07
 -8.0049998E-04    7.2642962E-07
 -7.9999998E-04    5.7335586E-07
 -7.9949998E-04    3.7143951E-07
 -7.9899997E-04    1.3165985E-07
 -7.9850003E-04   -1.3177471E-07
 -7.9800002E-04   -4.0224174E-07
 -7.9750002E-04   -6.6172890E-07
 -7.9700002E-04   -8.9200415E-07
 -7.9650001E-04   -1.0758555E-06
 -7.9600001E-04   -1.1983193E-06
 -7.9550000E-04   -1.2478084E-06
 -7.9500000E-04   -1.2170598E-06
 -7.9450000E-04   -1.1038278E-06
 -7.9399999E-04   -9.1126702E-07
 -7.9349999E-04   -6.4796438E-07
 -7.9299998E-04   -3.2760659E-07
 -7.9249998E-04    3.1708076E-08
 -7.9199998E-04    4.0847939E-07
 -7.9149997E-04    7.7908049E-07
 -7.9100003E-04    1.1192212E-06
 -7.9050002E-04    1.4055086E-06
 -7.9000002E-04    1.6170040E-06
 -7.8950002E-04    1.7366744E-06
 -7.8900001E-04    1.7526382E-06
 -7.8850001E-04    1.6591200E-06
 -7.8800000E-04    1.4570431E-06
 -7.8750000E-04    1.1542123E-06
 -7.8700000E-04    7.6506456E-07
 -7.8649999E-04    3.0999257E-07
 -7.8599999E-04   -1.8572544E-07
 -7.8549999E-04   -6.9333220E-07
 -7.8499998E-04   -1.1822528E-06
 -7.8449998E-04   -1.6219140E-06
 -7.8399997E-04   -1.9836111E-06
 -7.8350003E-04   -2.2423101E-06
 -7.8300002E-04   -2.3782745E-06
 -7.8250002E-04   -2.3784132E-06
 -7.8200002E-04   -2.2372662E-06
 -7.8150001E-04   -1.9575609E-06
 -7.8100001E-04   -1.5503018E-06
 -7.8050001E-04   -1.0343769E-06
 -7.8000000E-04   -4.3569790E-07
 -7.7950000E-04    2.1408559E-07
 -7.7899999E-04    8.7923115E-07
 -7.7849999E-04    1.5218224E-06
 -7.7799999E-04    2.1038579E-06
 -7.7749998E-04    2.5894017E-06
 -7.7699998E-04    2.9466728E-06
 -7.7649998E-04    3.1499651E-06
 -7.7599997E-04    3.1812897E-06
 -7.7550003E-04    3.0316421E-06
 -7.7500002E-04    2.7018264E-06
 -7.7450002E-04    2.2027752E-06
 -7.7400001E-04    1.5553387E-06
 -7.7350001E-04    7.8953661E-07
 -7.7300001E-04   -5.6703893E-08
 -7.7250000E-04   -9.3927889E-07
 -7.7200000E-04   -1.8100360E-06
 -7.7150000E-04   -2.6192085E-06
 -7.7099999E-04   -3.3180431E-06
 -7.7049999E-04   -3.8615017E-06
 -7.6999998E-04   -4.2108995E-06
 -7.6949998E-04   -4.3363430E-06
 -7.6899998E-04   -4.2188376E-06
 -7.6849997E-04   -3.8519311E-06
 -7.6800003E-04   -3.2427852E-06
 -7.6750002E-04   -2.4125802E-06
 -7.6700002E-04   -1.3961902E-06
 -7.6650002E-04   -2.4109525E-07
 -7.6600001E-04    9.9446868E-07
 -7.6550001E-04    2.2440734E-06
 -7.6500000E-04    3.4362945E-06
 -7.6450000E-04    4.4984135E-06
 -7.6400000E-04    5.3604576E-06
 -7.6349999E-04    5.9593854E-06
 -7.6299999E-04    6.2431850E-06
 -7.6249999E-04    6.1746587E-06
 -7.6199998E-04    5.7346365E-06
 -7.6149998E-04    4.9243972E-06
 -7.6099997E-04    3.7670814E-06
 -7.6050003E-04    2.3079374E-06
 -7.6000002E-04    6.1327717E-07
 -7.5950002E-04   -1.2318942E-06
 -7.5900002E-04   -3.1275524E-06
 -7.5850001E-04   -4.9635159E-06
 -7.5800001E-04   -6.6253006E-06
 -7.5750001E-04   -8.0006939E-06
 -7.5700000E-04   -8.9867081E-06
 -7.5650000E-04   -9.4965062E-06
 -7.5599999E-04   -9.4658917E-06
 -7.5549999E-04   -8.8588940E-06
 -7.5499999E-04   -7.6720571E-06
 -7.5449998E-04   -5.9370450E-06
 -7.5399998E-04   -3.7212669E-06
 -7.5349997E-04   -1.1263320E-06
 -7.5299997E-04    1.7157402E-06
 -7.5250003E-04    4.6484911E-06
 -7.5200002E-04    7.4989625E-06
 -7.5150002E-04    1.0087249E-05
 -7.5100001E-04    1.2237183E-05
 -7.5050001E-04    1.3787553E-05
 -7.5000001E-04    1.4603183E-05
 -7.4950000E-04    1.4585154E-05
 -7.4900000E-04    1.3679450E-05
 -7.4850000E-04    1.1883382E-05
 -7.4799999E-04    9.2491919E-06
 -7.4749999E-04    5.8844435E-06
 -7.4699998E-04    1.9489273E-06
 -7.4649998E-04   -2.3519426E-06
 -7.4599998E-04   -6.7770575E-06