 -1.2000001E-03    1.0000000E-24
 -1.1995001E-03    1.0000000E-24
 -1.1990000E-03    1.0000000E-24
 -1.1985000E-03    1.0000000E-24
 -1.1980000E-03    1.0000000E-24
 -1.1975000E-03    1.0000000E-24
 -1.1970000E-03    1.0000000E-24
 -1.1965000E-03    1.0000000E-24
 -1.1960000E-03    1.0000001E-24
 -1.1955000E-03    1.0000001E-24
 -1.1950000E-03    1.0000001E-24
 -1.1945000E-03    1.0000001E-24
 -1.1940000E-03    1.0000001E-24
 -1.1935000E-03    1.0000001E-24
 -1.1930000E-03    1.0000001E-24
 -1.1925000E-03    1.0000001E-24
 -1.1920000E-03    1.0000001E-24
 -1.1915000E-03    1.0000001E-24
 -1.1910000E-03    1.0000001E-24
 -1.1905000E-03    1.0000001E-24
 -1.1900000E-03    1.0000001E-24
 -1.1895000E-03    1.0000001E-24
 -1.1890000E-03    1.0000001E-24
 -1.1885000E-03    1.0000001E-24
 -1.1880000E-03    1.0000001E-24
 -1.1875000E-03    1.0000001E-24
 -1.1870000E-03    1.0000002E-24
 -1.1865000E-03    1.0000002E-24
 -1.1860000E-03    1.0000002E-24
 -1.1854999E-03    1.0000002E-24
 -1.1849999E-03    1.0000002E-24
 -1.1845001E-03    1.0000002E-24
 -1.1840001E-03    1.0000002E-24
 -1.1835000E-03    1.0000002E-24
 -1.1830000E-03    1.0000002E-24
 -1.1825000E-03    1.0000002E-24
 -1.1820000E-03    1.0000002E-24
 -1.1815000E-03    1.0000001E-24
 -1.1810000E-03    1.0000001E-24
 -1.1805000E-03    1.0000001E-24
 -1.1800000E-03    1.0000001E-24
 -1.1795000E-03    1.0000001E-24
 -1.1790000E-03    1.0000001E-24
 -1.1785000E-03    1.0000001E-24
 -1.1780000E-03    1.0000001E-24
 -1.1775000E-03    1.0000001E-24
 -1.1770000E-03    1.0000001E-24
 -1.1765000E-03    1.0000001E-24
 -1.1760000E-03    1.0000001E-24
 -1.1755000E-03    1.0000001E-24
 -1.1750000E-03    1.0000001E-24
 -1.1745000E-03    1.0000001E-24
 -1.1740000E-03    1.0000001E-24
 -1.1735000E-03    1.0000001E-24
 -1.1730000E-03    1.0000001E-24
 -1.1725000E-03    1.0000001E-24
 -1.1720000E-03    1.0000001E-24
 -1.1715000E-03    1.0000001E-24
 -1.1710000E-03    1.0000001E-24
 -1.1704999E-03    1.0000001E-24
 -1.1699999E-03    1.0000001E-24
 -1.1695001E-03    1.0000001E-24
 -1.1690001E-03    1.0000001E-24
 -1.1685000E-03    1.0000001E-24
 -1.1680000E-03    1.0000001E-24
 -1.1675000E-03    1.0000001E-24
 -1.1670000E-03    1.0000001E-24
 -1.1665000E-03    1.0000001E-24
 -1.1660000E-03    1.0000001E-24
 -1.1655000E-03    1.0000001E-24
 -1.1650000E-03    1.0000001E-24
 -1.1645000E-03    1.0000001E-24
 -1.1640000E-03    1.0000001E-24
 -1.1635000E-03    1.0000001E-24
 -1.1630000E-03    1.0000001E-24
 -1.1625000E-03    1.0000001E-24
 -1.1620000E-03    1.0000001E-24
 -1.1615000E-03    1.0000001E-24
 -1.1610000E-03    1.0000002E-24
 -1.1605000E-03    1.0000003E-24
 -1.1600000E-03    1.0000003E-24
 -1.1595000E-03    1.0000003E-24
 -1.1590000E-03    1.0000003E-24
 -1.1585000E-03    1.0000003E-24
 -1.1580000E-03    1.0000003E-24
 -1.1575000E-03    1.0000003E-24
 -1.1570000E-03    1.0000003E-24
 -1.1565000E-03    1.0000003E-24
 -1.1560000E-03    1.0000003E-24
 -1.1555000E-03    1.0000003E-24
 -1.1549999E-03    1.0000003E-24
 -1.1544999E-03    1.0000003E-24
 -1.1540001E-03    1.0000002E-24
 -1.1535001E-03    1.0000001E-24
 -1.1530000E-03    1.0000000E-24
 -1.1525000E-03    1.0000000E-24
 -1.1520000E-03    1.0000000E-24
 -1.1515000E-03    1.0000000E-24
 -1.1510000E-03    1.0000000E-24
 -1.1505000E-03    1.0000000E-24
 -1.1500000E-03    1.0000000E-24
 -1.1495000E-03    1.0000000E-24
 -1.1490000E-03    1.0000000E-24
 -1.1485000E-03    1.0000000E-24
 -1.1480000E-03    1.0000000E-24
 -1.1475000E-03    1.0000000E-24
 -1.1470000E-03    1.0000000E-24
 -1.1465000E-03    1.0000000E-24
 -1.1460000E-03    1.0000000E-24
 -1.1455000E-03    1.0000000E-24
 -1.1450000E-03    1.0000000E-24
 -1.1445000E-03    9.9999992E-25
 -1.1440000E-03    9.9999982E-25
 -1.1435000E-03    9.9999972E-25
 -1.1430000E-03    9.9999972E-25
 -1.1425000E-03    9.9999972E-25
 -1.1420000E-03    9.9999972E-25
 -1.1415000E-03    9.9999972E-25
 -1.1410000E-03    9.9999972E-25
 -1.1405000E-03    9.9999982E-25
 -1.1399999E-03    9.9999992E-25
 -1.1394999E-03    1.0000000E-24
 -1.1390001E-03    1.0000002E-24
 -1.1385001E-03    1.0000004E-24
 -1.1380001E-03    1.0000006E-24
 -1.1375000E-03    1.0000007E-24
 -1.1370000E-03    1.0000008E-24
 -1.1365000E-03    1.0000009E-24
 -1.1360000E-03    1.0000010E-24
 -1.1355000E-03    1.0000010E-24
 -1.1350000E-03    1.0000010E-24
 -1.1345000E-03    1.0000009E-24
 -1.1340000E-03    1.0000008E-24
 -1.1335000E-03    1.0000007E-24
 -1.1330000E-03    1.0000005E-24
 -1.1325000E-03    1.0000002E-24
 -1.1320000E-03    9.9999972E-25
 -1.1315000E-03    9.9999903E-25
 -1.1310000E-03    9.9999815E-25
 -1.1305000E-03    9.9999696E-25
 -1.1300000E-03    9.9999548E-25
 -1.1295000E-03    9.9999361E-25
 -1.1290000E-03    9.9999154E-25
 -1.1285000E-03    9.9998947E-25
 -1.1280000E-03    9.9998759E-25
 -1.1275000E-03    9.9998641E-25
 -1.1270000E-03    9.9998661E-25
 -1.1265000E-03    9.9998898E-25
 -1.1260000E-03    9.9999460E-25
 -1.1255000E-03    1.0000047E-24
 -1.1250000E-03    1.0000205E-24
 -1.1244999E-03    1.0000434E-24
 -1.1239999E-03    1.0000741E-24
 -1.1235001E-03    1.0001129E-24
 -1.1230001E-03    1.0001593E-24
 -1.1225000E-03    1.0002108E-24
 -1.1220000E-03    1.0002632E-24
 -1.1215000E-03    1.0003094E-24
 -1.1210000E-03    1.0003391E-24
 -1.1205000E-03    1.0003388E-24
 -1.1200000E-03    1.0002912E-24
 -1.1195000E-03    1.0001758E-24
 -1.1190000E-03    9.9997024E-25
 -1.1185000E-03    9.9965213E-25
 -1.1180000E-03    9.9920199E-25
 -1.1175000E-03    9.9860778E-25
 -1.1170000E-03    9.9787029E-25
 -1.1165000E-03    9.9700984E-25
 -1.1160000E-03    9.9607386E-25
 -1.1155000E-03    9.9514448E-25
 -1.1150000E-03    9.9434615E-25
 -1.1145000E-03    9.9385075E-25
 -1.1140000E-03    9.9387866E-25
 -1.1135000E-03    9.9469621E-25
 -1.1130000E-03    9.9660358E-25
 -1.1125000E-03    9.9991334E-25
 -1.1120000E-03    1.0049174E-24
 -1.1115000E-03    1.0118399E-24
 -1.1110000E-03    1.0207769E-24
 -1.1105000E-03    1.0316227E-24
 -1.1100000E-03    1.0439867E-24
 -1.1094999E-03    1.0571073E-24
 -1.1089999E-03    1.0697702E-24
 -1.1084999E-03    1.0802453E-24
 -1.1080001E-03    1.0862575E-24
 -1.1075001E-03    1.0850095E-24
 -1.1070000E-03    1.0732779E-24
 -1.1065000E-03    1.0476024E-24
 -1.1060000E-03    1.0045885E-24
 -1.1055000E-03    9.4133391E-25
 -1.1050000E-03    8.5598301E-25
 -1.1045000E-03    7.4840038E-25
 -1.1040000E-03    6.2093268E-25
 -1.1035000E-03    4.7920864E-25
 -1.1030000E-03    3.3289975E-25
 -1.1025000E-03    1.9633811E-25
 -1.1020000E-03    8.8860688E-26
 -1.1015000E-03    3.4728865E-26
 -1.1010000E-03    6.2459720E-26
 -1.1005000E-03    2.0340653E-25
 -1.1000000E-03    4.8944791E-25
 -1.0995000E-03    9.4968982E-25
 -1.0990000E-03    1.6061580E-24
 -1.0985000E-03    2.4685643E-24
 -1.0980000E-03    3.5283650E-24
 -1.0975000E-03    4.7524894E-24
 -1.0970000E-03    6.0773055E-24
 -1.0965000E-03    7.4035669E-24
 -1.0960000E-03    8.5932622E-24
 -1.0955000E-03    9.4694279E-24
 -1.0950000E-03    9.8200474E-24
 -1.0945000E-03    9.4071316E-24
 -1.0939999E-03    7.9819218E-24
 -1.0934999E-03    5.3068310E-24
 -1.0930001E-03    1.1842471E-24
 -1.0925001E-03   -4.5083724E-24
 -1.0920000E-03   -1.1778556E-23
 -1.0915000E-03   -2.0476480E-23
 -1.0910000E-03   -3.0253807E-23
 -1.0905000E-03   -4.0528395E-23
 -1.0900000E-03   -5.0460583E-23
 -1.0895000E-03   -5.8947480E-23
 -1.0890000E-03   -6.4642065E-23
 -1.0885000E-03   -6.6003525E-23
 -1.0880000E-03   -6.1384404E-23
 -1.0875000E-03   -4.9157956E-23
 -1.0870000E-03   -2.7886309E-23
 -1.0865000E-03    3.4739636E-24
 -1.0860000E-03    4.5337285E-23
 -1.0855000E-03    9.7239476E-23
 -1.0850000E-03    1.5759319E-22
 -1.0845000E-03    2.2347430E-22
 -1.0840000E-03    2.9047032E-22
 -1.0835000E-03    3.5262582E-22
 -1.0830000E-03    4.0252066E-22
 -1.0825000E-03    4.3151509E-22
 -1.0820000E-03    4.3019041E-22
 -1.0815000E-03    3.8900193E-22
 -1.0810000E-03    2.9914686E-22
 -1.0805000E-03    1.5362881E-22
 -1.0800000E-03   -5.1524841E-23
 -1.0795000E-03   -3.1596293E-22
 -1.0790000E-03   -6.3372890E-22
 -1.0784999E-03   -9.9212529E-22
 -1.0779999E-03   -1.3708756E-21
 -1.0775001E-03   -1.7417524E-21
 -1.0770001E-03   -2.0688423E-21
 -1.0765000E-03   -2.3096074E-21
 -1.0760000E-03   -2.4168743E-21
 -1.0755000E-03   -2.3418283E-21
 -1.0750000E-03   -2.0380193E-21
 -1.0745000E-03   -1.4662889E-21
 -1.0740000E-03   -6.0041998E-22
 -1.0735000E-03    5.6681774E-22
 -1.0730000E-03    2.0176761E-21
 -1.0725000E-03    3.7040635E-21
 -1.0720000E-03    5.5434733E-21
 -1.0715000E-03    7.4169343E-21
 -1.0710000E-03    9.1697212E-21
 -1.0705000E-03    1.0615506E-20
 -1.0700000E-03    1.1544479E-20
 -1.0695000E-03    1.1735782E-20
 -1.0690000E-03    1.0974224E-20
 -1.0685000E-03    9.0709183E-21
 -1.0680000E-03    5.8869701E-21
 -1.0675000E-03    1.3588730E-21
 -1.0670000E-03   -4.4762475E-21
 -1.0665000E-03   -1.1457852E-20
 -1.0660000E-03   -1.9284364E-20
 -1.0655000E-03   -2.7503568E-20
 -1.0650000E-03   -3.5513982E-20
 -1.0645000E-03   -4.2579720E-20
 -1.0640000E-03   -4.7861026E-20
 -1.0634999E-03   -5.0461549E-20
 -1.0629999E-03   -4.9492290E-20
 -1.0625001E-03   -4.4150665E-20
 -1.0620001E-03   -3.3811350E-20
 -1.0615001E-03   -1.8123684E-20
 -1.0610000E-03    2.8913896E-21
 -1.0605000E-03    2.8753483E-20
 -1.0600000E-03    5.8454004E-20
 -1.0595000E-03    9.0417064E-20
 -1.0590000E-03    1.2250046E-19
 -1.0585000E-03    1.5204612E-19
 -1.0580000E-03    1.7598720E-19
 -1.0575000E-03    1.9101556E-19
 -1.0570000E-03    1.9380902E-19
 -1.0565000E-03    1.8131232E-19
 -1.0560000E-03    1.5105946E-19
 -1.0555000E-03    1.0151907E-19
 -1.0550000E-03    3.2437303E-20
 -1.0545000E-03   -5.4851335E-20
 -1.0540000E-03   -1.5718028E-19
 -1.0535000E-03   -2.6941009E-19
 -1.0530000E-03   -3.8442604E-19
 -1.0525000E-03   -4.9330477E-19
 -1.0520000E-03   -5.8567355E-19
 -1.0515000E-03   -6.5027315E-19
 -1.0510000E-03   -6.7571986E-19
 -1.0505000E-03   -6.5144537E-19
 -1.0500000E-03   -5.6877032E-19
 -1.0495000E-03   -4.2204918E-19
 -1.0490000E-03   -2.0980130E-19
 -1.0485000E-03    6.4271914E-20
 -1.0479999E-03    3.9049651E-19
 -1.0474999E-03    7.5277918E-19
 -1.0470001E-03    1.1286163E-18
 -1.0465001E-03    1.4896551E-18
 -1.0460000E-03    1.8028747E-18
 -1.0455000E-03    2.0324187E-18
 -1.0450000E-03    2.1420516E-18
 -1.0445000E-03    2.0981664E-18
 -1.0440000E-03    1.8731894E-18
 -1.0435000E-03    1.4491749E-18
 -1.0430000E-03    8.2131735E-19
 -1.0425000E-03    1.0537754E-21
 -1.0420000E-03   -9.8159155E-19
 -1.0415000E-03   -2.0767864E-18
 -1.0410000E-03   -3.2151313E-18
 -1.0405000E-03   -4.3096416E-18
 -1.0400000E-03   -5.2596569E-18
 -1.0395000E-03   -5.9567340E-18
 -1.0390000E-03   -6.2924154E-18
 -1.0385000E-03   -6.1675769E-18
 -1.0380000E-03   -5.5028591E-18
 -1.0375000E-03   -4.2494903E-18
 -1.0370000E-03   -2.3996288E-18
 -1.0365000E-03    4.7830750E-21
 -1.0360000E-03    2.8657366E-18
 -1.0355000E-03    6.0265211E-18
 -1.0350000E-03    9.2737171E-18
 -1.0345000E-03    1.2344577E-17
 -1.0340000E-03    1.4940237E-17
 -1.0335000E-03    1.6744774E-17
 -1.0329999E-03    1.7449608E-17
 -1.0324999E-03    1.6782150E-17
 -1.0319999E-03    1.4537018E-17
 -1.0315001E-03    1.0607565E-17
 -1.0310001E-03    5.0149227E-18
 -1.0305000E-03   -2.0684803E-18
 -1.0300000E-03   -1.0304213E-17
 -1.0295000E-03   -1.9185032E-17
 -1.0290000E-03   -2.8046647E-17
 -1.0285000E-03   -3.6095955E-17
 -1.0280000E-03   -4.2456577E-17
 -1.0275000E-03   -4.6231081E-17
 -1.0270000E-03   -4.6577670E-17
 -1.0265000E-03   -4.2797346E-17
 -1.0260000E-03   -3.4425778E-17
 -1.0255000E-03   -2.1322509E-17
 -1.0250000E-03   -3.7488280E-18
 -1.0245000E-03    1.7575077E-17
 -1.0240000E-03    4.1443128E-17
 -1.0235000E-03    6.6175177E-17
 -1.0230000E-03    8.9674485E-17
 -1.0225000E-03    1.0953499E-16
 -1.0220000E-03    1.2319875E-16
 -1.0215000E-03    1.2815946E-16
 -1.0210000E-03    1.2220290E-16
 -1.0205000E-03    1.0366984E-16
 -1.0200000E-03    7.1721932E-17
 -1.0195000E-03    2.6586908E-17
 -1.0190000E-03   -3.0243761E-17
 -1.0185000E-03   -9.5892554E-17
 -1.0180000E-03   -1.6607576E-16
 -1.0174999E-03   -2.3520819E-16
 -1.0169999E-03   -2.9664912E-16
 -1.0165001E-03   -3.4309551E-16
 -1.0160001E-03   -3.6711745E-16
 -1.0155000E-03   -3.6181494E-16
 -1.0150000E-03   -3.2156184E-16
 -1.0145000E-03   -2.4278606E-16
 -1.0140000E-03   -1.2472209E-16
 -1.0135000E-03    2.9938399E-17
 -1.0130000E-03    2.1457871E-16
 -1.0125000E-03    4.1845185E-16
 -1.0120000E-03    6.2681047E-16
 -1.0115000E-03    8.2142868E-16
 -1.0110000E-03    9.8154803E-16
 -1.0105000E-03    1.0852482E-15
 -1.0100000E-03    1.1112030E-15
 -1.0095000E-03    1.0407425E-15
 -1.0090000E-03    8.6009314E-16
 -1.0085000E-03    5.6263073E-16
 -1.0080000E-03    1.5094453E-16
 -1.0075000E-03   -3.6151414E-16
 -1.0070000E-03   -9.4942960E-16
 -1.0065000E-03   -1.5754870E-15
 -1.0060000E-03   -2.1912910E-15
 -1.0055000E-03   -2.7394646E-15
 -1.0050000E-03   -3.1569767E-15
 -1.0045000E-03   -3.3796418E-15
 -1.0040000E-03   -3.3476182E-15
 -1.0035000E-03   -3.0116165E-15
 -1.0030000E-03   -2.3393955E-15
 -1.0025000E-03   -1.3220229E-15
 -1.0019999E-03    2.0697945E-17
 -1.0014999E-03    1.6362905E-15
 -1.0010001E-03    3.4377902E-15
 -1.0005001E-03    5.3046273E-15
 -1.0000000E-03    7.0866524E-15
 -9.9950004E-04    8.6115477E-15
 -9.9900004E-04    9.6956304E-15
 -9.9850004E-04    1.0157722E-14
 -9.9800003E-04    9.8354696E-15
 -9.9750003E-04    8.6031273E-15
 -9.9700002E-04    6.3895206E-15
 -9.9650002E-04    3.1946485E-15
 -9.9600002E-04   -8.9679094E-16
 -9.9550001E-04   -5.7067019E-15
 -9.9500001E-04   -1.0961387E-14
 -9.9450001E-04   -1.6297227E-14
 -9.9400000E-04   -2.1275218E-14
 -9.9350000E-04   -2.5404693E-14
 -9.9299999E-04   -2.8175904E-14
 -9.9249999E-04   -2.9100190E-14
 -9.9199999E-04   -2.7755679E-14
 -9.9149998E-04   -2.3835526E-14
 -9.9099998E-04   -1.7195009E-14
 -9.9049998E-04   -7.8931900E-15
 -9.8999997E-04    3.7754097E-15
 -9.8949997E-04    1.7263597E-14
 -9.8899996E-04    3.1772826E-14
 -9.8849996E-04    4.6276175E-14
 -9.8799996E-04    5.9564773E-14
 -9.8749995E-04    7.0317822E-14
 -9.8699995E-04    7.7194334E-14
 -9.8649994E-04    7.8942427E-14
 -9.8600006E-04    7.4519926E-14
 -9.8550005E-04    6.3217931E-14
 -9.8500005E-04    4.4777329E-14
 -9.8450005E-04    1.9487214E-14
 -9.8400004E-04   -1.1746304E-14
 -9.8350004E-04   -4.7371507E-14
 -9.8300003E-04   -8.5211975E-14
 -9.8250003E-04   -1.2254332E-13
 -9.8200003E-04   -1.5622849E-13
 -9.8150002E-04   -1.8291000E-13
 -9.8100002E-04   -1.9925192E-13
 -9.8050002E-04   -2.0221953E-13
 -9.8000001E-04   -1.8937933E-13
 -9.7950001E-04   -1.5919720E-13
 -9.7900000E-04   -1.1130968E-13
 -9.7850000E-04   -4.6741358E-14
 -9.7800000E-04    3.1958468E-14
 -9.7749999E-04    1.2068393E-13
 -9.7699999E-04    2.1386445E-13
 -9.7649998E-04    3.0469220E-13
 -9.7599998E-04    3.8548694E-13
 -9.7549998E-04    4.4818939E-13
 -9.7499997E-04    4.8496130E-13
 -9.7450003E-04    4.8885944E-13
 -9.7400002E-04    4.5453813E-13
 -9.7350002E-04    3.7892665E-13
 -9.7300002E-04    2.6182198E-13
 -9.7250001E-04    1.0633480E-13
 -9.7200001E-04   -8.0869583E-14
 -9.7150001E-04   -2.8958555E-13
 -9.7100000E-04   -5.0637305E-13
 -9.7050000E-04   -7.1517222E-13
 -9.6999999E-04   -8.9822149E-13
 -9.6949999E-04   -1.0372462E-12
 -9.6899999E-04   -1.1148609E-12
 -9.6849998E-04   -1.1160984E-12
 -9.6799998E-04   -1.0299608E-12
 -9.6749997E-04   -8.5086576E-13
 -9.6700003E-04   -5.7985756E-13
 -9.6650003E-04   -2.2544947E-13
 -9.6600002E-04    1.9602215E-13
 -9.6550002E-04    6.6062721E-13
 -9.6500001E-04    1.1377176E-12
 -9.6450001E-04    1.5914645E-12
 -9.6400001E-04    1.9830223E-12
 -9.6350000E-04    2.2732270E-12
 -9.6300000E-04    2.4256836E-12
 -9.6249999E-04    2.4100385E-12
 -9.6199999E-04    2.2052017E-12
 -9.6149999E-04    1.8022469E-12
 -9.6099998E-04    1.2067148E-12
 -9.6049998E-04    4.4005427E-13
 -9.5999998E-04   -4.6002617E-13
 -9.5949997E-04   -1.4404637E-12
 -9.5900003E-04   -2.4350912E-12
 -9.5850002E-04   -3.3682213E-12
 -9.5800002E-04   -4.1594419E-12
 -9.5750001E-04   -4.7293918E-12
 -9.5700001E-04   -5.0061665E-12
 -9.5650001E-04   -4.9319264E-12
 -9.5600000E-04   -4.4691937E-12
 -9.5550000E-04   -3.6062991E-12
 -9.5500000E-04   -2.3614309E-12
 -9.5449999E-04   -7.8480646E-13
 -9.5399999E-04    1.0414443E-12
 -9.5349998E-04    3.0059408E-12
 -9.5299998E-04    4.9733473E-12
 -9.5249998E-04    6.7921862E-12
 -9.5199997E-04    8.3048403E-12
 -9.5150003E-04    9.3592000E-12
 -9.5100002E-04    9.8212107E-12
 -9.5050002E-04    9.5874281E-12
 -9.5000002E-04    8.5965852E-12
 -9.4950001E-04    6.8391343E-12
 -9.4900001E-04    4.3637758E-12
 -9.4850000E-04    1.2801399E-12
 -9.4800000E-04   -2.2430374E-12
 -9.4750000E-04   -5.9845770E-12
 -9.4699999E-04   -9.6823608E-12
 -9.4649999E-04   -1.3049283E-11
 -9.4599999E-04   -1.5792869E-11
 -9.4549998E-04   -1.7637388E-11
 -9.4499998E-04   -1.8347003E-11
 -9.4449997E-04   -1.7748187E-11
 -9.4400003E-04   -1.5749638E-11
 -9.4350002E-04   -1.2357795E-11
 -9.4300002E-04   -7.6863385E-12
 -9.4250002E-04   -1.9582834E-12
 -9.4200001E-04    4.5001997E-12
 -9.4150001E-04    1.1274605E-11
 -9.4100001E-04    1.7885230E-11
 -9.4050000E-04    2.3817621E-11
 -9.4000000E-04    2.8558668E-11
 -9.3949999E-04    3.1636031E-11
 -9.3899999E-04    3.2658196E-11
 -9.3849999E-04    3.1352022E-11
 -9.3799998E-04    2.7594664E-11
 -9.3749998E-04    2.1436884E-11
 -9.3699998E-04    1.3115077E-11
 -9.3649997E-04    3.0501688E-12
 -9.3600003E-04   -8.1677911E-12
 -9.3550002E-04   -1.9809354E-11
 -9.3500002E-04   -3.1048674E-11
 -9.3450001E-04   -4.1017613E-11
 -9.3400001E-04   -4.8867663E-11
 -9.3350001E-04   -5.3835651E-11
 -9.3300000E-04   -5.5308355E-11
 -9.3250000E-04   -5.2881068E-11
 -9.3200000E-04   -4.6405043E-11
 -9.3149999E-04   -3.6019326E-11
 -9.3099999E-04   -2.2163275E-11
 -9.3049998E-04   -5.5673331E-12
 -9.2999998E-04    1.2778912E-11
 -9.2949998E-04    3.1680641E-11
 -9.2899997E-04    4.9811179E-11
 -9.2850003E-04    6.5800677E-11
 -9.2800002E-04    7.8334381E-11
 -9.2750002E-04    8.6253740E-11
 -9.2700002E-04    8.8652828E-11
 -9.2650001E-04    8.4962426E-11
 -9.2600001E-04    7.5014585E-11
 -9.2550000E-04    5.9081517E-11
 -9.2500000E-04    3.7884296E-11
 -9.2450000E-04    1.2568714E-11
 -9.2399999E-04   -1.5351720E-11
 -9.2349999E-04   -4.4083352E-11
 -9.2299999E-04   -7.1665673E-11
 -9.2249998E-04   -9.6103264E-11
 -9.2199998E-04   -1.1550744E-10
 -9.2149997E-04   -1.2823760E-10
 -9.2100003E-04   -1.3303156E-10
 -9.2050002E-04   -1.2911476E-10
 -9.2000002E-04   -1.1627917E-10
 -9.1950002E-04   -9.4924589E-11
 -9.1900001E-04   -6.6057798E-11
 -9.1850001E-04   -3.1248011E-11
 -9.1800001E-04    7.4600178E-12
 -9.1750000E-04    4.7669972E-11
 -9.1700000E-04    8.6787341E-11
 -9.1649999E-04    1.2219176E-10
 -9.1599999E-04    1.5141596E-10
 -9.1549999E-04    1.7231885E-10
 -9.1499998E-04    1.8323942E-10
 -9.1449998E-04    1.8312020E-10
 -9.1399997E-04    1.7159078E-10
 -9.1349997E-04    1.4900477E-10
 -9.1300003E-04    1.1642724E-10
 -9.1250002E-04    7.5573457E-11
 -9.1200002E-04    2.8703144E-11
 -9.1150001E-04   -2.1521568E-11
 -9.1100001E-04   -7.2204132E-11
 -9.1050001E-04   -1.2039496E-10
 -9.1000000E-04   -1.6327290E-10
 -9.0950000E-04   -1.9831398E-10
 -9.0899999E-04   -2.2343578E-10
 -9.0849999E-04   -2.3710839E-10
 -9.0799999E-04   -2.3842592E-10
 -9.0749998E-04   -2.2713610E-10
 -9.0699998E-04   -2.0362911E-10
 -9.0649998E-04   -1.6889033E-10
 -9.0599997E-04   -1.2442404E-10
 -9.0550003E-04   -7.2157585E-11
 -9.0500002E-04   -1.4335639E-11
 -9.0450002E-04    4.6585812E-11
 -9.0400001E-04    1.0803764E-10
 -9.0350001E-04    1.6742246E-10
 -9.0300001E-04    2.2218362E-10
 -9.0250000E-04    2.6985916E-10
 -9.0200000E-04    3.0812478E-10
 -9.0150000E-04    3.3483222E-10
 -9.0099999E-04    3.4805125E-10
 -9.0049999E-04    3.4612341E-10
 -8.9999998E-04    3.2773453E-10
 -8.9949998E-04    2.9201011E-10
 -8.9899998E-04    2.3863359E-10
 -8.9849997E-04    1.6798254E-10
 -8.9800003E-04    8.1272294E-11
 -8.9750002E-04   -1.9308872E-11
 -8.9700002E-04   -1.3049276E-10
 -8.9650002E-04   -2.4787522E-10
 -8.9600001E-04   -3.6593431E-10
 -8.9550001E-04   -4.7814253E-10
 -8.9500000E-04   -5.7718941E-10
 -8.9450000E-04   -6.5532124E-10
 -8.9400000E-04   -7.0479395E-10
 -8.9349999E-04   -7.1842510E-10
 -8.9299999E-04   -6.9021472E-10
 -8.9249999E-04   -6.1599525E-10
 -8.9199998E-04   -4.9405829E-10
 -8.9149998E-04   -3.2569961E-10
 -8.9099997E-04   -1.1562039E-10
 -8.9050003E-04    1.2787439E-10
 -8.9000002E-04    3.9293144E-10
 -8.8950002E-04    6.6449496E-10
 -8.8900002E-04    9.2495894E-10
 -8.8850001E-04    1.1551183E-09
 -8.8800001E-04    1.3353844E-09
 -8.8750001E-04    1.4472008E-09
 -8.8700000E-04    1.4745738E-09
 -8.8650000E-04    1.4056044E-09
 -8.8599999E-04    1.2338999E-09
 -8.8549999E-04    9.5973385E-10
 -8.8499999E-04    5.9082961E-10
 -8.8449998E-04    1.4265805E-10
 -8.8399998E-04   -3.6183140E-10
 -8.8349998E-04   -8.9309077E-10
 -8.8299997E-04   -1.4164631E-09
 -8.8250003E-04   -1.8942290E-09
 -8.8200002E-04   -2.2881093E-09
 -8.8150002E-04   -2.5620697E-09
 -8.8100001E-04   -2.6852380E-09
 -8.8050001E-04   -2.6347147E-09
 -8.8000001E-04   -2.3980427E-09
 -8.7950000E-04   -1.9751103E-09
 -8.7900000E-04   -1.3792837E-09
 -8.7850000E-04   -6.3761302E-10
 -8.7799999E-04    2.0999183E-10
 -8.7749999E-04    1.1126344E-09
 -8.7699998E-04    2.0112989E-09
 -8.7649998E-04    2.8425671E-09
 -8.7599998E-04    3.5429648E-09
 -8.7549997E-04    4.0536432E-09
 -8.7500003E-04    4.3250612E-09
 -8.7450002E-04    4.3212980E-09
 -8.7400002E-04    4.0236379E-09
 -8.7350002E-04    3.4330996E-09
 -8.7300001E-04    2.5716345E-09
 -8.7250001E-04    1.4818246E-09
 -8.7200000E-04    2.2500424E-10
 -8.7150000E-04   -1.1221414E-09
 -8.7100000E-04   -2.4723259E-09
 -8.7049999E-04   -3.7334629E-09
 -8.6999999E-04   -4.8151243E-09
 -8.6949999E-04   -5.6351870E-09
 -8.6899998E-04   -6.1261574E-09
 -8.6849998E-04   -6.2406662E-09
 -8.6799997E-04   -5.9556688E-09
 -8.6750003E-04   -5.2749667E-09
 -8.6700002E-04   -4.2297970E-09
 -8.6650002E-04   -2.8773648E-09
 -8.6600002E-04   -1.2973783E-09
 -8.6550001E-04    4.1320361E-10
 -8.6500001E-04    2.1468340E-09
 -8.6450001E-04    3.7929566E-09
 -8.6400000E-04    5.2459042E-09
 -8.6350000E-04    6.4124843E-09
 -8.6299999E-04    7.2186306E-09
 -8.6249999E-04    7.6145641E-09
 -8.6199999E-04    7.5780227E-09
 -8.6149998E-04    7.1152964E-09
 -8.6099998E-04    6.2599623E-09
 -8.6049997E-04    5.0694733E-09
 -8.5999997E-04    3.6198911E-09
 -8.5950003E-04    1.9992863E-09
 -8.5900002E-04    3.0042216E-10
 -8.5850002E-04   -1.3865653E-09
 -8.5800001E-04   -2.9807758E-09
 -8.5750001E-04   -4.4157922E-09
 -8.5700001E-04   -5.6430509E-09
 -8.5650000E-04   -6.6330039E-09
 -8.5600000E-04   -7.3739925E-09
 -8.5549999E-04   -7.8689881E-09
 -8.5499999E-04   -8.1306331E-09
 -8.5449999E-04   -8.1752196E-09
 -8.5399998E-04   -8.0164071E-09
 -8.5349998E-04   -7.6595983E-09
 -8.5299998E-04   -7.0978321E-09
 -8.5249997E-04   -6.3099961E-09
 -8.5200003E-04   -5.2619145E-09
 -8.5150002E-04   -3.9105905E-09
 -8.5100002E-04   -2.2115085E-09
 -8.5050002E-04   -1.2852275E-10
 -8.5000001E-04    2.3545397E-09
 -8.4950001E-04    5.2217679E-09
 -8.4900000E-04    8.4140064E-09
 -8.4850000E-04    1.1820217E-08
 -8.4800000E-04    1.5272931E-08
 -8.4749999E-04    1.8549127E-08
 -8.4699999E-04    2.1377549E-08
 -8.4649998E-04    2.3452889E-08
 -8.4599998E-04    2.4456709E-08
 -8.4549998E-04    2.4084141E-08
 -8.4499997E-04    2.2074817E-08
 -8.4450003E-04    1.8245684E-08
 -8.4400002E-04    1.2522902E-08
 -8.4350002E-04    4.9696136E-09
 -8.4300002E-04   -4.1936365E-09
 -8.4250001E-04   -1.4578935E-08
 -8.4200001E-04   -2.5634018E-08
 -8.4150000E-04   -3.6660030E-08
 -8.4100000E-04   -4.6844651E-08
 -8.4050000E-04   -5.5310000E-08
 -8.3999999E-04   -6.1173289E-08
 -8.3949999E-04   -6.3616852E-08
 -8.3899999E-04   -6.1962893E-08
 -8.3849998E-04   -5.5747332E-08
 -8.3799998E-04   -4.4786400E-08
 -8.3749997E-04   -2.9229611E-08
 -8.3700003E-04   -9.5929158E-09
 -8.3650002E-04    1.3233095E-08
 -8.3600002E-04    3.8003723E-08
 -8.3550002E-04    6.3171214E-08
 -8.3500001E-04    8.6965883E-08
 -8.3450001E-04    1.0750424E-07
 -8.3400001E-04    1.2291879E-07
 -8.3350000E-04    1.3150141E-07
 -8.3300000E-04    1.3185074E-07
 -8.3249999E-04    1.2301230E-07
 -8.3199999E-04    1.0459960E-07
 -8.3149999E-04    7.6884895E-08
 -8.3099998E-04    4.0849311E-08
 -8.3049998E-04   -1.8156896E-09
 -8.2999998E-04   -4.8760413E-08
 -8.2949997E-04   -9.7083991E-08
 -8.2900003E-04   -1.4349352E-07
 -8.2850002E-04   -1.8450805E-07
 -8.2800002E-04   -2.1669628E-07
 -8.2750001E-04   -2.3693291E-07
 -8.2700001E-04   -2.4265600E-07
 -8.2650001E-04   -2.3210620E-07
 -8.2600000E-04   -2.0452798E-07
 -8.2550000E-04   -1.6031454E-07
 -8.2500000E-04   -1.0108096E-07
 -8.2449999E-04   -2.9653611E-08
 -8.2399999E-04    5.0029957E-08
 -8.2349998E-04    1.3311079E-07
 -8.2299998E-04    2.1408121E-07
 -8.2249998E-04    2.8712662E-07
 -8.2199997E-04    3.4651714E-07
 -8.2150003E-04    3.8702345E-07
 -8.2100002E-04    4.0432906E-07
 -8.2050002E-04    3.9540797E-07
 -8.2000002E-04    3.5883753E-07
 -8.1950001E-04    2.9501982E-07
 -8.1900001E-04    2.0628795E-07
 -8.1850000E-04    9.6882161E-08
 -8.1800000E-04   -2.7211929E-08
 -8.1750000E-04   -1.5856038E-07
 -8.1699999E-04   -2.8870136E-07
 -8.1649999E-04   -4.0866655E-07
 -8.1599999E-04   -5.0957289E-07
 -8.1549998E-04   -5.8324730E-07
 -8.1499998E-04   -6.2284090E-07
 -8.1449997E-04   -6.2338955E-07
 -8.1400003E-04   -5.8227744E-07
 -8.1350002E-04   -4.9956412E-07
 -8.1300002E-04   -3.7814570E-07
 -8.1250002E-04   -2.2372747E-07
 -8.1200001E-04   -4.4600871E-08
 -8.1150001E-04    1.4877175E-07
 -8.1100001E-04    3.4434518E-07
 -8.1050000E-04    5.2922093E-07
 -8.1000000E-04    6.9047479E-07
 -8.0949999E-04    8.1603031E-07
 -8.0899999E-04    8.9551986E-07
 -8.0849999E-04    9.2107376E-07
 -8.0799998E-04    8.8797918E-07
 -8.0749998E-04    7.9515820E-07
 -8.0699997E-04    6.4542365E-07
 -8.0649997E-04    4.4548526E-07
 -8.0600003E-04    2.0569503E-07
 -8.0550002E-04   -6.0462902E-08
 -8.0500002E-04   -3.3711339E-07
 -8.0450001E-04   -6.0692270E-07
 -8.0400001E-04   -8.5216760E-07
 -8.0350001E-04   -1.0558742E-06
 -8.0300000E-04   -1.2029551E-06
 -8.0250000E-04   -1.2812683E-06
 -8.0200000E-04   -1.2825252E-06
 -8.0149999E-04   -1.2029842E-06
 -8.0099999E-04   -1.0438754E-06
 -8.0049998E-04   -8.1152177E-07
 -7.9999998E-04   -5.1713749E-07
 -7.9949998E-04   -1.7630786E-07
 -7.9899997E-04    1.9182608E-07
 -7.9850003E-04    5.6563482E-07
 -7.9800002E-04    9.2225883E-07
 -7.9750002E-04    1.2389838E-06
 -7.9700002E-04    1.4946492E-06
 -7.9650001E-04    1.6710048E-06
 -7.9600001E-04    1.7539271E-06
 -7.9550000E-04    1.7344199E-06
 -7.9500000E-04    1.6093318E-06
 -7.9450000E-04    1.3817405E-06
 -7.9399999E-04    1.0609750E-06
 -7.9349999E-04    6.6226494E-07
 -7.9299998E-04    2.0603123E-07
 -7.9249998E-04   -2.8314625E-07
 -7.9199998E-04   -7.7783193E-07
 -7.9149997E-04   -1.2492374E-06
 -7.9100003E-04   -1.6688413E-06
 -7.9050002E-04   -2.0100367E-06
 -7.9000002E-04   -2.2497145E-06
 -7.8950002E-04   -2.3696916E-06
 -7.8900001E-04   -2.3579046E-06
 -7.8850001E-04   -2.2092966E-06
 -7.8800000E-04   -1.9263452E-06
 -7.8750000E-04   -1.5191940E-06
 -7.8700000E-04   -1.0053731E-06
 -7.8649999E-04   -4.0911289E-07
 -7.8599999E-04    2.3972223E-07
 -7.8549999E-04    9.0703804E-07
 -7.8499998E-04    1.5561875E-06
 -7.8449998E-04    2.1498454E-06
 -7.8399997E-04    2.6519929E-06
 -7.8350003E-04    3.0299161E-06
 -7.8300002E-04    3.2561195E-06
 -7.8250002E-04    3.3100548E-06
 -7.8200002E-04    3.1795730E-06
 -7.8150001E-04    2.8620104E-06
 -7.8100001E-04    2.3648424E-06
 -7.8050001E-04    1.7058402E-06
 -7.8000000E-04    9.1270010E-07
 -7.7950000E-04    2.2131580E-08
 -7.7899999E-04   -9.2158865E-07
 -7.7849999E-04   -1.8685545E-06
 -7.7799999E-04   -2.7655967E-06
 -7.7749998E-04   -3.5589858E-06
 -7.7699998E-04   -4.1973535E-06
 -7.7649998E-04   -4.6346959E-06
 -7.7599997E-04   -4.8333018E-06
 -7.7550003E-04   -4.7664444E-06
 -7.7500002E-04   -4.4206677E-06
 -7.7450002E-04   -3.7975005E-06
 -7.7400001E-04   -2.9144676E-06
 -7.7350001E-04   -1.8052626E-06
 -7.7300001E-04   -5.1901526E-07
 -7.7250000E-04    8.8139512E-07
 -7.7200000E-04    2.3219584E-06
 -7.7150000E-04    3.7210166E-06
 -7.7099999E-04    4.9934806E-06
 -7.7049999E-04    6.0555931E-06
 -7.6999998E-04    6.8299973E-06
 -7.6949998E-04    7.2508396E-06
 -7.6899998E-04    7.2685884E-06
 -7.6849997E-04    6.8542577E-06
 -7.6800003E-04    6.0027196E-06
 -7.6750002E-04    4.7348258E-06
 -7.6700002E-04    3.0981046E-06
 -7.6650002E-04    1.1658684E-06
 -7.6600001E-04   -9.6534177E-07
 -7.6550001E-04   -3.1799543E-06
 -7.6500000E-04   -5.3490753E-06
 -7.6450000E-04   -7.3374690E-06
 -7.6400000E-04   -9.0114700E-06
 -7.6349999E-04   -1.0247392E-05
 -7.6299999E-04   -1.0939953E-05
 -7.6249999E-04   -1.1010149E-05
 -7.6199998E-04   -1.0412065E-05
 -7.6149998E-04   -9.1380780E-06
 -7.6099997E-04   -7.2220196E-06
 -7.6050003E-04   -4.7399212E-06
 -7.6000002E-04   -1.8081395E-06
 -7.5950002E-04    1.4212218E-06
 -7.5900002E-04    4.7674789E-06
 -7.5850001E-04    8.0308546E-06
 -7.5800001E-04    1.1003817E-05
 -7.5750001E-04    1.3483682E-05
 -7.5700000E-04    1.5285730E-05
 -7.5650000E-04    1.6256041E-05
 -7.5599999E-04    1.6283180E-05
 -7.5549999E-04    1.5307922E-05
 -7.5499999E-04    1.3330230E-05
 -7.5449998E-04    1.0412909E-05
 -7.5399998E-04    6.6814314E-06
 -7.5349997E-04    2.3197642E-06
 -7.5299997E-04   -2.4378087E-06
 -7.5250003E-04   -7.3185633E-06
 -7.5200002E-04   -1.2026367E-05
 -7.5150002E-04   -1.6259077E-05
 -7.5100001E-04   -1.9727311E-05
 -7.5050001E-04   -2.2173457E-05
 -7.5000001E-04   -2.3389724E-05
 -7.4950000E-04   -2.3233970E-05
 -7.4900000E-04   -2.1642225E-05
 -7.4850000E-04   -1.8636885E-05
 -7.4799999E-04   -1.4329838E-05
 -7.4749999E-04   -8.9200457E-06
 -7.4699998E-04   -2.6854625E-06
 -7.4649998E-04    4.0304667E-06
 -7.4599998E-04    1.0837151E-05