 -1.2000001E-03    1.0000000E-24
 -1.1995001E-03    1.0000000E-24
 -1.1990000E-03    1.0000000E-24
 -1.1985000E-03    1.0000000E-24
 -1.1980000E-03    1.0000000E-24
 -1.1975000E-03    1.0000000E-24
 -1.1970000E-03    1.0000000E-24
 -1.1965000E-03    5.6741153E-18
 -1.1960000E-03    8.1517869E-17
 -1.1955000E-03    6.2072210E-16
 -1.1950000E-03    3.3261709E-15
 -1.1945000E-03    1.4057109E-14
 -1.1940000E-03    4.9804470E-14
 -1.1935000E-03    1.5359891E-13
 -1.1930000E-03    4.2283660E-13
 -1.1925000E-03    1.0575954E-12
 -1.1920000E-03    2.4347202E-12
 -1.1915000E-03    5.2089296E-12
 -1.1910000E-03    1.0431775E-11
 -1.1905000E-03    1.9660955E-11
 -1.1900000E-03    3.5005290E-11
 -1.1895000E-03    5.9015862E-11
 -1.1890000E-03    9.4295821E-11
 -1.1885000E-03    1.4266957E-10
 -1.1880000E-03    2.0374012E-10
 -1.1875000E-03    2.7269056E-10
 -1.1870000E-03    3.3727202E-10
 -1.1865000E-03    3.7408668E-10
 -1.1860000E-03    3.4453260E-10
 -1.1854999E-03    1.9112463E-10
 -1.1849999E-03   -1.6467813E-10
 -1.1845001E-03   -8.2158125E-10
 -1.1840001E-03   -1.8925821E-09
 -1.1835000E-03   -3.4920273E-09
 -1.1830000E-03   -5.7136691E-09
 -1.1825000E-03   -8.5984109E-09
 -1.1820000E-03   -1.2091663E-08
 -1.1815000E-03   -1.5992118E-08
 -1.1810000E-03   -1.9896291E-08
 -1.1805000E-03   -2.3146233E-08
 -1.1800000E-03   -2.4791024E-08
 -1.1795000E-03   -2.3575632E-08
 -1.1790000E-03   -1.7972763E-08
 -1.1785000E-03   -6.2736665E-09
 -1.1780000E-03    1.3248171E-08
 -1.1775000E-03    4.2091653E-08
 -1.1770000E-03    8.1201037E-08
 -1.1765000E-03    1.3056948E-07
 -1.1760000E-03    1.8880091E-07
 -1.1755000E-03    2.5267531E-07
 -1.1750000E-03    3.1678005E-07
 -1.1745000E-03    3.7328419E-07
 -1.1740000E-03    4.1194360E-07
 -1.1735000E-03    4.2042265E-07
 -1.1730000E-03    3.8500934E-07
 -1.1725000E-03    2.9177298E-07
 -1.1720000E-03    1.2817272E-07
 -1.1715000E-03   -1.1493113E-07
 -1.1710000E-03   -4.4097939E-07
 -1.1704999E-03   -8.4532098E-07
 -1.1699999E-03   -1.3129887E-06
 -1.1695001E-03   -1.8169696E-06
 -1.1690001E-03   -2.3173327E-06
 -1.1685000E-03   -2.7615815E-06
 -1.1680000E-03   -3.0865592E-06
 -1.1675000E-03   -3.2221312E-06
 -1.1670000E-03   -3.0967360E-06
 -1.1665000E-03   -2.6446783E-06
 -1.1660000E-03   -1.8148158E-06
 -1.1655000E-03   -5.8001643E-07
 -1.1650000E-03    1.0534765E-06
 -1.1645000E-03    3.0378553E-06
 -1.1640000E-03    5.2779551E-06
 -1.1635000E-03    7.6291030E-06
 -1.1630000E-03    9.8997516E-06
 -1.1625000E-03    1.1859758E-05
 -1.1620000E-03    1.3254749E-05
 -1.1615000E-03    1.3826412E-05
 -1.1610000E-03    1.3337863E-05
 -1.1605000E-03    1.1602481E-05
 -1.1600000E-03    8.5138363E-06
 -1.1595000E-03    4.0737318E-06
 -1.1590000E-03   -1.5850914E-06
 -1.1585000E-03   -8.1851631E-06
 -1.1580000E-03   -1.5302749E-05
 -1.1575000E-03   -2.2381273E-05
 -1.1570000E-03   -2.8761327E-05
 -1.1565000E-03   -3.3727330E-05
 -1.1560000E-03   -3.6569258E-05
 -1.1555000E-03   -3.6655707E-05
 -1.1549999E-03   -3.3512824E-05
 -1.1544999E-03   -2.6901707E-05
 -1.1540001E-03   -1.6885864E-05
 -1.1535001E-03   -3.8796534E-06
 -1.1530000E-03    1.1330973E-05
 -1.1525000E-03    2.7602679E-05
 -1.1520000E-03    4.3488802E-05
 -1.1515000E-03    5.7334775E-05
 -1.1510000E-03    6.7412198E-05
 -1.1505000E-03    7.2084418E-05
 -1.1500000E-03    6.9991605E-05
 -1.1495000E-03    6.0239508E-05
 -1.1490000E-03    4.2572556E-05
 -1.1485000E-03    1.7510703E-05
 -1.1480000E-03   -1.3570593E-05
 -1.1475000E-03   -4.8435108E-05
 -1.1470000E-03   -8.4068430E-05
 -1.1465000E-03   -1.1685453E-04
 -1.1460000E-03   -1.4284351E-04
 -1.1455000E-03   -1.5809805E-04
 -1.1450000E-03   -1.5909559E-04
 -1.1445000E-03   -1.4315445E-04
 -1.1440000E-03   -1.0884365E-04
 -1.1435000E-03   -5.6332916E-05
 -1.1430000E-03    1.2362484E-05
 -1.1425000E-03    9.3282870E-05
 -1.1420000E-03    1.8060359E-04
 -1.1415000E-03    2.6691178E-04
 -1.1410000E-03    3.4368256E-04
 -1.1405000E-03    4.0193679E-04
 -1.1399999E-03    4.3304134E-04
 -1.1394999E-03    4.2959407E-04
 -1.1390001E-03    3.8631770E-04
 -1.1385001E-03    3.0087604E-04
 -1.1380001E-03    1.7452211E-04
 -1.1375000E-03    1.2491090E-05
 -1.1370000E-03   -1.7593477E-04
 -1.1365000E-03   -3.7773969E-04
 -1.1360000E-03   -5.7688623E-04
 -1.1355000E-03   -7.5540895E-04
 -1.1350000E-03   -8.9483289E-04
 -1.1345000E-03   -9.7782316E-04
 -1.1340000E-03   -9.8993455E-04
 -1.1335000E-03   -9.2130649E-04
 -1.1330000E-03   -7.6813402E-04
 -1.1325000E-03   -5.3374760E-04
 -1.1320000E-03   -2.2915089E-04
 -1.1315000E-03    1.2709781E-04
 -1.1310000E-03    5.0972577E-04
 -1.1305000E-03    8.8831090E-04
 -1.1300000E-03    1.2295040E-03
 -1.1295000E-03    1.4997721E-03
 -1.1290000E-03    1.6684579E-03
 -1.1285000E-03    1.7109031E-03
 -1.1280000E-03    1.6113417E-03
 -1.1275000E-03    1.3652681E-03
 -1.1270000E-03    9.8099955E-04
 -1.1265000E-03    4.8019885E-04
 -1.1260000E-03   -1.0279565E-04
 -1.1255000E-03   -7.2289491E-04
 -1.1250000E-03   -1.3273808E-03
 -1.1244999E-03   -1.8600499E-03
 -1.1239999E-03   -2.2660878E-03
 -1.1235001E-03   -2.4972856E-03
 -1.1230001E-03   -2.5171365E-03
 -1.1225000E-03   -2.3053209E-03
 -1.1220000E-03   -1.8610971E-03
 -1.1215000E-03   -1.2051709E-03
 -1.1210000E-03   -3.7973069E-04
 -1.1205000E-03    5.5353181E-04
 -1.1200000E-03    1.5174102E-03
 -1.1195000E-03    2.4249882E-03
 -1.1190000E-03    3.1868794E-03
 -1.1185000E-03    3.7193422E-03
 -1.1180000E-03    3.9525884E-03
 -1.1175000E-03    3.8385147E-03
 -1.1170000E-03    3.3570745E-03
 -1.1165000E-03    2.5205780E-03
 -1.1160000E-03    1.3753278E-03
 -1.1155000E-03    2.1416957E-07
 -1.1150000E-03   -1.4978634E-03
 -1.1145000E-03   -2.9915813E-03
 -1.1140000E-03   -4.3433229E-03
 -1.1135000E-03   -5.4171174E-03
 -1.1130000E-03   -6.0914159E-03
 -1.1125000E-03   -6.2715649E-03
 -1.1120000E-03   -5.9007942E-03
 -1.1115000E-03   -4.9685580E-03
 -1.1110000E-03   -3.5152391E-03
 -1.1105000E-03   -1.6324855E-03
 -1.1100000E-03    5.4120162E-04
 -1.1094999E-03    2.8295866E-03
 -1.1089999E-03    5.0320425E-03
 -1.1084999E-03    6.9402037E-03
 -1.1080001E-03    8.3566215E-03
 -1.1075001E-03    9.1138491E-03
 -1.1070000E-03    9.0922052E-03
 -1.1065000E-03    8.2344608E-03
 -1.1060000E-03    6.5558641E-03
 -1.1055000E-03    4.1482160E-03
 -1.1050000E-03    1.1771899E-03
 -1.1045000E-03   -2.1273647E-03
 -1.1040000E-03   -5.4877382E-03
 -1.1035000E-03   -8.6002713E-03
 -1.1030000E-03   -1.1161246E-02
 -1.1025000E-03   -1.2894641E-02
 -1.1020000E-03   -1.3579342E-02
 -1.1015000E-03   -1.3073274E-02
 -1.1010000E-03   -1.1332015E-02
 -1.1005000E-03   -8.4198071E-03
 -1.1000000E-03   -4.5114602E-03
 -1.0995000E-03    1.1567547E-04
 -1.0990000E-03    5.0995708E-03
 -1.0985000E-03    1.0020263E-02
 -1.0980000E-03    1.4433634E-02
 -1.0975000E-03    1.7909614E-02
 -1.0970000E-03    2.0071654E-02
 -1.0965000E-03    2.0633962E-02
 -1.0960000E-03    1.9433033E-02
 -1.0955000E-03    1.6450252E-02
 -1.0950000E-03    1.1823005E-02
 -1.0945000E-03    5.8426009E-03
 -1.0939999E-03   -1.0616117E-03
 -1.0934999E-03   -8.3513418E-03
 -1.0930001E-03   -1.5419849E-02
 -1.0925001E-03   -2.1640893E-02
 -1.0920000E-03   -2.6422296E-02
 -1.0915000E-03   -2.9259641E-02
 -1.0910000E-03   -2.9785357E-02
 -1.0905000E-03   -2.7808644E-02
 -1.0900000E-03   -2.3342201E-02
 -1.0895000E-03   -1.6612759E-02
 -1.0890000E-03   -8.0535933E-03
 -1.0885000E-03    1.7211928E-03
 -1.0880000E-03    1.1959342E-02
 -1.0875000E-03    2.1827189E-02
 -1.0870000E-03    3.0476250E-02
 -1.0865000E-03    3.7114356E-02
 -1.0860000E-03    4.1075431E-02
 -1.0855000E-03    4.1881859E-02
 -1.0850000E-03    3.9293718E-02
 -1.0845000E-03    3.3340160E-02
 -1.0840000E-03    2.4329429E-02
 -1.0835000E-03    1.2835882E-02
 -1.0830000E-03   -3.3591292E-04
 -1.0825000E-03   -1.4207768E-02
 -1.0820000E-03   -2.7701210E-02
 -1.0815000E-03   -3.9721958E-02
 -1.0810000E-03   -4.9248833E-02
 -1.0805000E-03   -5.5419832E-02
 -1.0800000E-03   -5.7607990E-02
 -1.0795000E-03   -5.5480454E-02
 -1.0790000E-03   -4.9035281E-02
 -1.0784999E-03   -3.8612265E-02
 -1.0779999E-03   -2.4876183E-02
 -1.0775001E-03   -8.7730614E-03
 -1.0770001E-03    8.5375179E-03
 -1.0765000E-03    2.5769165E-02
 -1.0760000E-03    4.1607730E-02
 -1.0755000E-03    5.4814797E-02
 -1.0750000E-03    6.4327247E-02
 -1.0745000E-03    6.9344714E-02
 -1.0740000E-03    6.9397502E-02
 -1.0735000E-03    6.4389236E-02
 -1.0730000E-03    5.4610383E-02
 -1.0725000E-03    4.0721111E-02
 -1.0720000E-03    2.3704600E-02
 -1.0715000E-03    4.7941920E-03
 -1.0710000E-03   -1.4619929E-02
 -1.0705000E-03   -3.3097230E-02
 -1.0700000E-03   -4.9257986E-02
 -1.0695000E-03   -6.1890285E-02
 -1.0690000E-03   -7.0044234E-02
 -1.0685000E-03   -7.3105954E-02
 -1.0680000E-03   -7.0845284E-02
 -1.0675000E-03   -6.3433640E-02
 -1.0670000E-03   -5.1430512E-02
 -1.0665000E-03   -3.5739817E-02
 -1.0660000E-03   -1.7539751E-02
 -1.0655000E-03    1.8082929E-03
 -1.0650000E-03    2.0864321E-02
 -1.0645000E-03    3.8219649E-02
 -1.0640000E-03    5.2603446E-02
 -1.0634999E-03    6.2977679E-02
 -1.0629999E-03    6.8613246E-02
 -1.0625001E-03    6.9141664E-02
 -1.0620001E-03    6.4578712E-02
 -1.0615001E-03    5.5318646E-02
 -1.0610000E-03    4.2099912E-02
 -1.0605000E-03    2.5945578E-02
 -1.0600000E-03    8.0833388E-03
 -1.0595000E-03   -1.0148353E-02
 -1.0590000E-03   -2.7400741E-02
 -1.0585000E-03   -4.2414196E-02
 -1.0580000E-03   -5.4109253E-02
 -1.0575000E-03   -6.1662760E-02
 -1.0570000E-03   -6.4563930E-02
 -1.0565000E-03   -6.2646762E-02
 -1.0560000E-03   -5.6097038E-02
 -1.0555000E-03   -4.5434084E-02
 -1.0550000E-03   -3.1469204E-02
 -1.0545000E-03   -1.5244323E-02
 -1.0540000E-03    2.0443960E-03
 -1.0535000E-03    1.9132370E-02
 -1.0530000E-03    3.4775730E-02
 -1.0525000E-03    4.7837693E-02
 -1.0520000E-03    5.7366535E-02
 -1.0515000E-03    6.2660098E-02
 -1.0510000E-03    6.3312992E-02
 -1.0505000E-03    5.9243668E-02
 -1.0500000E-03    5.0699931E-02
 -1.0495000E-03    3.8242884E-02
 -1.0490000E-03    2.2710424E-02
 -1.0485000E-03    5.1627327E-03
 -1.0479999E-03   -1.3186803E-02
 -1.0474999E-03   -3.1051006E-02
 -1.0470001E-03   -4.7153816E-02
 -1.0465001E-03   -6.0315475E-02
 -1.0460000E-03   -6.9532767E-02
 -1.0455000E-03   -7.4049167E-02
 -1.0450000E-03   -7.3410369E-02
 -1.0445000E-03   -6.7501254E-02
 -1.0440000E-03   -5.6561384E-02
 -1.0435000E-03   -4.1177250E-02
 -1.0430000E-03   -2.2250969E-02
 -1.0425000E-03   -9.4645598E-04
 -1.0420000E-03    2.1384317E-02
 -1.0415000E-03    4.3290891E-02
 -1.0410000E-03    6.3324332E-02
 -1.0405000E-03    8.0141291E-02
 -1.0400000E-03    9.2604831E-02
 -1.0395000E-03    9.9874757E-02
 -1.0390000E-03    0.1014802    
 -1.0385000E-03    9.7368285E-02
 -1.0380000E-03    8.7923281E-02
 -1.0375000E-03    7.3954239E-02
 -1.0370000E-03    5.6649137E-02
 -1.0365000E-03    3.7497729E-02
 -1.0360000E-03    1.8187264E-02
 -1.0355000E-03    4.7763955E-04
 -1.0350000E-03   -1.3935194E-02
 -1.0345000E-03   -2.3557328E-02
 -1.0340000E-03   -2.7225424E-02
 -1.0335000E-03   -2.4214694E-02
 -1.0329999E-03   -1.4316384E-02
 -1.0324999E-03    2.1233044E-03
 -1.0319999E-03    2.4208095E-02
 -1.0315001E-03    5.0542280E-02
 -1.0310001E-03    7.9325259E-02
 -1.0305000E-03    0.1084843    
 -1.0300000E-03    0.1358364    
 -1.0295000E-03    0.1592664    
 -1.0290000E-03    0.1769083    
 -1.0285000E-03    0.1873126    
 -1.0280000E-03    0.1895867    
 -1.0275000E-03    0.1834934    
 -1.0270000E-03    0.1694976    
 -1.0265000E-03    0.1487556    
 -1.0260000E-03    0.1230435    
 -1.0255000E-03    9.4630480E-02
 -1.0250000E-03    6.6102654E-02
 -1.0245000E-03    4.0153589E-02
 -1.0240000E-03    1.9355895E-02
 -1.0235000E-03    5.9340964E-03
 -1.0230000E-03    1.5581622E-03
 -1.0225000E-03    7.1765245E-03
 -1.0220000E-03    2.2904677E-02
 -1.0215000E-03    4.7981203E-02
 -1.0210000E-03    8.0797650E-02
 -1.0205000E-03    0.1190025    
 -1.0200000E-03    0.1596731    
 -1.0195000E-03    0.1995427    
 -1.0190000E-03    0.2352661    
 -1.0185000E-03    0.2637008    
 -1.0180000E-03    0.2821813    
 -1.0174999E-03    0.2887627    
 -1.0169999E-03    0.2824105    
 -1.0165001E-03    0.2631208    
 -1.0160001E-03    0.2319567    
 -1.0155000E-03    0.1909969    
 -1.0150000E-03    0.1431978    
 -1.0145000E-03    9.2178322E-02
 -1.0140000E-03    4.1944474E-02
 -1.0135000E-03   -3.4250491E-03
 -1.0130000E-03   -4.0106721E-02
 -1.0125000E-03   -6.4846188E-02
 -1.0120000E-03   -7.5232089E-02
 -1.0115000E-03   -6.9906339E-02
 -1.0110000E-03   -4.8692334E-02
 -1.0105000E-03   -1.2629660E-02
 -1.0100000E-03    3.6088824E-02
 -1.0095000E-03    9.4273195E-02
 -1.0090000E-03    0.1579739    
 -1.0085000E-03    0.2227816    
 -1.0080000E-03    0.2841648    
 -1.0075000E-03    0.3378188    
 -1.0070000E-03    0.3799967    
 -1.0065000E-03    0.4077964    
 -1.0060000E-03    0.4193797    
 -1.0055000E-03    0.4141084    
 -1.0050000E-03    0.3925840    
 -1.0045000E-03    0.3565919    
 -1.0040000E-03    0.3089535    
 -1.0035000E-03    0.2533007    
 -1.0030000E-03    0.1937913    
 -1.0025000E-03    0.1347892    
 -1.0019999E-03    8.0535300E-02
 -1.0014999E-03    3.4836031E-02
 -1.0010001E-03    7.9188164E-04
 -1.0005001E-03   -1.9412173E-02
 -1.0000000E-03   -2.4641030E-02
 -9.9950004E-04   -1.4860265E-02
 -9.9900004E-04    8.8974508E-03
 -9.9850004E-04    4.4644456E-02
 -9.9800003E-04    8.9616843E-02
 -9.9750003E-04    0.1405031    
 -9.9700002E-04    0.1937032    
 -9.9650002E-04    0.2455962    
 -9.9600002E-04    0.2927968    
 -9.9550001E-04    0.3323811    
 -9.9500001E-04    0.3620680    
 -9.9450001E-04    0.3803436    
 -9.9400000E-04    0.3865256    
 -9.9350000E-04    0.3807653    
 -9.9299999E-04    0.3639926    
 -9.9249999E-04    0.3378119    
 -9.9199999E-04    0.3043602    
 -9.9149998E-04    0.2661399    
 -9.9099998E-04    0.2258407    
 -9.9049998E-04    0.1861617    
 -9.8999997E-04    0.1496466    
 -9.8949997E-04    0.1185401    
 -9.8899996E-04    9.4672635E-02
 -9.8849996E-04    7.9376400E-02
 -9.8799996E-04    7.3434882E-02
 -9.8749995E-04    7.7064961E-02
 -9.8699995E-04    8.9929134E-02
 -9.8649994E-04    0.1111747    
 -9.8600006E-04    0.1394958    
 -9.8550005E-04    0.1732146    
 -9.8500005E-04    0.2103767    
 -9.8450005E-04    0.2488580    
 -9.8400004E-04    0.2864784    
 -9.8350004E-04    0.3211183    
 -9.8300003E-04    0.3508349    
 -9.8250003E-04    0.3739717    
 -9.8200003E-04    0.3892585    
 -9.8150002E-04    0.3958945    
 -9.8100002E-04    0.3936098    
 -9.8050002E-04    0.3826987    
 -9.8000001E-04    0.3640217    
 -9.7950001E-04    0.3389710    
 -9.7900000E-04    0.3093987    
 -9.7850000E-04    0.2775092    
 -9.7800000E-04    0.2457196    
 -9.7749999E-04    0.2164954    
 -9.7699999E-04    0.1921717    
 -9.7649998E-04    0.1747732    
 -9.7599998E-04    0.1658461    
 -9.7549998E-04    0.1663182    
 -9.7499997E-04    0.1763991    
 -9.7450003E-04    0.1955343    
 -9.7400002E-04    0.2224188    
 -9.7350002E-04    0.2550745    
 -9.7300002E-04    0.2909892    
 -9.7250001E-04    0.3273082    
 -9.7200001E-04    0.3610652    
 -9.7150001E-04    0.3894352    
 -9.7100000E-04    0.4099861    
 -9.7050000E-04    0.4209085    
 -9.6999999E-04    0.4211999    
 -9.6949999E-04    0.4107854    
 -9.6899999E-04    0.3905594    
 -9.6849998E-04    0.3623416    
 -9.6799998E-04    0.3287468    
 -9.6749997E-04    0.2929765    
 -9.6700003E-04    0.2585480    
 -9.6650003E-04    0.2289840    
 -9.6600002E-04    0.2074895    
 -9.6550002E-04    0.1966452    
 -9.6500001E-04    0.1981483    
 -9.6450001E-04    0.2126253    
 -9.6400001E-04    0.2395381    
 -9.6350000E-04    0.2771956    
 -9.6300000E-04    0.3228728    
 -9.6249999E-04    0.3730318    
 -9.6199999E-04    0.4236246    
 -9.6149999E-04    0.4704551    
 -9.6099998E-04    0.5095651    
 -9.6049998E-04    0.5376102    
 -9.5999998E-04    0.5521895    
 -9.5949997E-04    0.5520957    
 -9.5900003E-04    0.5374605    
 -9.5850002E-04    0.5097780    
 -9.5800002E-04    0.4718007    
 -9.5750001E-04    0.4273137    
 -9.5700001E-04    0.3808067    
 -9.5650001E-04    0.3370706    
 -9.5600000E-04    0.3007567    
 -9.5550000E-04    0.2759370    
 -9.5500000E-04    0.2657103    
 -9.5449999E-04    0.2718887    
 -9.5399999E-04    0.2947993    
 -9.5349998E-04    0.3332196    
 -9.5299998E-04    0.3844571    
 -9.5249998E-04    0.4445665    
 -9.5199997E-04    0.5086896    
 -9.5150003E-04    0.5714845    
 -9.5100002E-04    0.6276076    
 -9.5050002E-04    0.6722041    
 -9.5000002E-04    0.7013597    
 -9.4950001E-04    0.7124721    
 -9.4900001E-04    0.7045065    
 -9.4850000E-04    0.6781090    
 -9.4800000E-04    0.6355680    
 -9.4750000E-04    0.5806233    
 -9.4699999E-04    0.5181419    
 -9.4649999E-04    0.4536883    
 -9.4599999E-04    0.3930300    
 -9.4549998E-04    0.3416220    
 -9.4499998E-04    0.3041203    
 -9.4449997E-04    0.2839673    
 -9.4400003E-04    0.2830889    
 -9.4350002E-04    0.3017305    
 -9.4300002E-04    0.3384463    
 -9.4250002E-04    0.3902418    
 -9.4200001E-04    0.4528569    
 -9.4150001E-04    0.5211595    
 -9.4100001E-04    0.5896146    
 -9.4050000E-04    0.6527832    
 -9.4000000E-04    0.7058045    
 -9.3949999E-04    0.7448177    
 -9.3899999E-04    0.7672845    
 -9.3849999E-04    0.7721846    
 -9.3799998E-04    0.7600685    
 -9.3749998E-04    0.7329655    
 -9.3699998E-04    0.6941594    
 -9.3649997E-04    0.6478549    
 -9.3600003E-04    0.5987701    
 -9.3550002E-04    0.5516949    
 -9.3500002E-04    0.5110559    
 -9.3450001E-04    0.4805317    
 -9.3400001E-04    0.4627494    
 -9.3350001E-04    0.4590910    
 -9.3300000E-04    0.4696211    
 -9.3250000E-04    0.4931405    
 -9.3200000E-04    0.5273525    
 -9.3149999E-04    0.5691238    
 -9.3099999E-04    0.6148091    
 -9.3049998E-04    0.6606058    
 -9.2999998E-04    0.7029038    
 -9.2949998E-04    0.7385964    
 -9.2899997E-04    0.7653266    
 -9.2850003E-04    0.7816464    
 -9.2800002E-04    0.7870829    
 -9.2750002E-04    0.7821082    
 -9.2700002E-04    0.7680265    
 -9.2650001E-04    0.7467932    
 -9.2600001E-04    0.7207932    
 -9.2550000E-04    0.6926010    
 -9.2500000E-04    0.6647522    
 -9.2450000E-04    0.6395463    
 -9.2399999E-04    0.6188987    
 -9.2349999E-04    0.6042534    
 -9.2299999E-04    0.5965543    
 -9.2249998E-04    0.5962731    
 -9.2199998E-04    0.6034797    
 -9.2149997E-04    0.6179386    
 -9.2100003E-04    0.6392125    
 -9.2050002E-04    0.6667559    
 -9.2000002E-04    0.6999826    
 -9.1950002E-04    0.7382995    
 -9.1900001E-04    0.7811004    
 -9.1850001E-04    0.8277265    
 -9.1800001E-04    0.8774025    
 -9.1750000E-04    0.9291614    
 -9.1700000E-04    0.9817801    
 -9.1649999E-04     1.033739    
 -9.1599999E-04     1.083225    
 -9.1549999E-04     1.128186    
 -9.1499998E-04     1.166442    
 -9.1449998E-04     1.195848    
 -9.1399997E-04     1.214499    
 -9.1349997E-04     1.220949    
 -9.1300003E-04     1.214432    
 -9.1250002E-04     1.195050    
 -9.1200002E-04     1.163893    
 -9.1150001E-04     1.123089    
 -9.1100001E-04     1.075748    
 -9.1050001E-04     1.025805    
 -9.1000000E-04    0.9777610    
 -9.0950000E-04    0.9363466    
 -9.0899999E-04    0.9061245    
 -9.0849999E-04    0.8910758    
 -9.0799999E-04    0.8942049    
 -9.0749998E-04    0.9172063    
 -9.0699998E-04    0.9602322    
 -9.0649998E-04     1.021788    
 -9.0599997E-04     1.098776    
 -9.0550003E-04     1.186694    
 -9.0500002E-04     1.279975    
 -9.0450002E-04     1.372441    
 -9.0400001E-04     1.457834    
 -9.0350001E-04     1.530379    
 -9.0300001E-04     1.585316    
 -9.0250000E-04     1.619357    
 -9.0200000E-04     1.631016    
 -9.0150000E-04     1.620774    
 -9.0099999E-04     1.591058    
 -9.0049999E-04     1.546034    
 -8.9999998E-04     1.491226    
 -8.9949998E-04     1.432994    
 -8.9899998E-04     1.377920    
 -8.9849997E-04     1.332161    
 -8.9800003E-04     1.300837    
 -8.9750002E-04     1.287508    
 -8.9700002E-04     1.293802    
 -8.9650002E-04     1.319237    
 -8.9600001E-04     1.361245    
 -8.9550001E-04     1.415422    
 -8.9500000E-04     1.475961    
 -8.9450000E-04     1.536245    
 -8.9400000E-04     1.589528    
 -8.9349999E-04     1.629652    
 -8.9299999E-04     1.651711    
 -8.9249999E-04     1.652607    
 -8.9199998E-04     1.631419    
 -8.9149998E-04     1.589574    
 -8.9099997E-04     1.530762    
 -8.9050003E-04     1.460622    
 -8.9000002E-04     1.386224    
 -8.8950002E-04     1.315379    
 -8.8900002E-04     1.255867    
 -8.8850001E-04     1.214638    
 -8.8800001E-04     1.197081    
 -8.8750001E-04     1.206435    
 -8.8700000E-04     1.243395    
 -8.8650000E-04     1.305967    
 -8.8599999E-04     1.389587    
 -8.8549999E-04     1.487503    
 -8.8499999E-04     1.591370    
 -8.8449998E-04     1.692028    
 -8.8399998E-04     1.780364    
 -8.8349998E-04     1.848185    
 -8.8299997E-04     1.889024    
 -8.8250003E-04     1.898775    
 -8.8200002E-04     1.876113    
 -8.8150002E-04     1.822655    
 -8.8100001E-04     1.742826    
 -8.8050001E-04     1.643462    
 -8.8000001E-04     1.533176    
 -8.7950000E-04     1.421553    
 -8.7900000E-04     1.318251    
 -8.7850000E-04     1.232098    
 -8.7799999E-04     1.170275    
 -8.7749999E-04     1.137663    
 -8.7699998E-04     1.136417    
 -8.7649998E-04     1.165813    
 -8.7599998E-04     1.222378    
 -8.7549997E-04     1.300281    
 -8.7500003E-04     1.391959    
 -8.7450002E-04     1.488891    
 -8.7400002E-04     1.582460    
 -8.7350002E-04     1.664801    
 -8.7300001E-04     1.729553    
 -8.7250001E-04     1.772441    
 -8.7200000E-04     1.791630    
 -8.7150000E-04     1.787814    
 -8.7100000E-04     1.764044    
 -8.7049999E-04     1.725313    
 -8.6999999E-04     1.677947    
 -8.6949999E-04     1.628869    
 -8.6899998E-04     1.584825    
 -8.6849998E-04     1.551647    
 -8.6799997E-04     1.533640    
 -8.6750003E-04     1.533154    
 -8.6700002E-04     1.550389    
 -8.6650002E-04     1.583446    
 -8.6600002E-04     1.628620    
 -8.6550001E-04     1.680899    
 -8.6500001E-04     1.734602    
 -8.6450001E-04     1.784093    
 -8.6400000E-04     1.824479    
 -8.6350000E-04     1.852214    
 -8.6299999E-04     1.865541    
 -8.6249999E-04     1.864718    
 -8.6199999E-04     1.851992    
 -8.6149998E-04     1.831344    
 -8.6099998E-04     1.808002    
 -8.6049997E-04     1.787809    
 -8.5999997E-04     1.776487    
 -8.5950003E-04     1.778909    
 -8.5900002E-04     1.798446    
 -8.5850002E-04     1.836479    
 -8.5800001E-04     1.892127    
 -8.5750001E-04     1.962246    
 -8.5700001E-04     2.041687    
 -8.5650000E-04     2.123807    
 -8.5600000E-04     2.201178    
 -8.5549999E-04     2.266417    
 -8.5499999E-04     2.313051    
 -8.5449999E-04     2.336313    
 -8.5399998E-04     2.333792    
 -8.5349998E-04     2.305838    
 -8.5299998E-04     2.255682    
 -8.5249997E-04     2.189243    
 -8.5200003E-04     2.114631    
 -8.5150002E-04     2.041386    
 -8.5100002E-04     1.979527    
 -8.5050002E-04     1.938513    
 -8.5000001E-04     1.926217    
 -8.4950001E-04     1.948019    
 -8.4900000E-04     2.006135    
 -8.4850000E-04     2.099247    
 -8.4800000E-04     2.222481    
 -8.4749999E-04     2.367767    
 -8.4699999E-04     2.524525    
 -8.4649998E-04     2.680640    
 -8.4599998E-04     2.823625    
 -8.4549998E-04     2.941848    
 -8.4499997E-04     3.025717    
 -8.4450003E-04     3.068680    
 -8.4400002E-04     3.067942    
 -8.4350002E-04     3.024833    
 -8.4300002E-04     2.944749    
 -8.4250001E-04     2.836697    
 -8.4200001E-04     2.712467    
 -8.4150000E-04     2.585507    
 -8.4100000E-04     2.469624    
 -8.4050000E-04     2.377620    
 -8.3999999E-04     2.320031    
 -8.3949999E-04     2.304063    
 -8.3899999E-04     2.332870    
 -8.3849998E-04     2.405225    
 -8.3799998E-04     2.515638    
 -8.3749997E-04     2.654908    
 -8.3700003E-04     2.811046    
 -8.3650002E-04     2.970499    
 -8.3600002E-04     3.119525    
 -8.3550002E-04     3.245602    
 -8.3500001E-04     3.338707    
 -8.3450001E-04     3.392343    
 -8.3400001E-04     3.404200    
 -8.3350000E-04     3.376388    
 -8.3300000E-04     3.315200    
 -8.3249999E-04     3.230451    
 -8.3199999E-04     3.134429    
 -8.3149999E-04     3.040602    
 -8.3099998E-04     2.962185    
 -8.3049998E-04     2.910732    
 -8.2999998E-04     2.894902    
 -8.2949997E-04     2.919529    
 -8.2900003E-04     2.985085    
 -8.2850002E-04     3.087614    
 -8.2800002E-04     3.219136    
 -8.2750001E-04     3.368480    
 -8.2700001E-04     3.522468    
 -8.2650001E-04     3.667315    
 -8.2600000E-04     3.790117    
 -8.2550000E-04     3.880244    
 -8.2500000E-04     3.930516    
 -8.2449999E-04     3.938009    
 -8.2399999E-04     3.904427    
 -8.2349998E-04     3.835973    
 -8.2299998E-04     3.742746    
 -8.2249998E-04     3.637716    
 -8.2199997E-04     3.535376    
 -8.2150003E-04     3.450224    
 -8.2100002E-04     3.395224    
 -8.2050002E-04     3.380414    
 -8.2000002E-04     3.411801    
 -8.1950001E-04     3.490684    
 -8.1900001E-04     3.613448    
 -8.1850000E-04     3.771889    
 -8.1800000E-04     3.954015    
 -8.1750000E-04     4.145256    
 -8.1699999E-04     4.329958    
 -8.1649999E-04     4.492995    
 -8.1599999E-04     4.621349    
 -8.1549998E-04     4.705468    
 -8.1499998E-04     4.740278    
 -8.1449997E-04     4.725729    
 -8.1400003E-04     4.666817    
 -8.1350002E-04     4.573072    
 -8.1300002E-04     4.457573    
 -8.1250002E-04     4.335585    
 -8.1200001E-04     4.222959    
 -8.1150001E-04     4.134468    
 -8.1100001E-04     4.082257    
 -8.1050000E-04     4.074563    
 -8.1000000E-04     4.114853    
 -8.0949999E-04     4.201476    
 -8.0899999E-04     4.327848    
 -8.0849999E-04     4.483185    
 -8.0799998E-04     4.653682    
 -8.0749998E-04     4.824022    
 -8.0699997E-04     4.979061    
 -8.0649997E-04     5.105494    
 -8.0600003E-04     5.193343    
 -8.0550002E-04     5.237071    
 -8.0500002E-04     5.236238    
 -8.0450001E-04     5.195587    
 -8.0400001E-04     5.124571    
 -8.0350001E-04     5.036349    
 -8.0300000E-04     4.946363    
 -8.0250000E-04     4.870642    
 -8.0200000E-04     4.824011    
 -8.0149999E-04     4.818410    
 -8.0099999E-04     4.861485    
 -8.0049998E-04     4.955637    
 -7.9999998E-04     5.097610    
 -7.9949998E-04     5.278693    
 -7.9899997E-04     5.485522    
 -7.9850003E-04     5.701390    
 -7.9800002E-04     5.907961    
 -7.9750002E-04     6.087186    
 -7.9700002E-04     6.223239    
 -7.9650001E-04     6.304255    
 -7.9600001E-04     6.323690    
 -7.9550000E-04     6.281155    
 -7.9500000E-04     6.182605    
 -7.9450000E-04     6.039887    
 -7.9399999E-04     5.869651    
 -7.9349999E-04     5.691748    
 -7.9299998E-04     5.527265    
 -7.9249998E-04     5.396402    
 -7.9199998E-04     5.316407    
 -7.9149997E-04     5.299783    
 -7.9100003E-04     5.352964    
 -7.9050002E-04     5.475593    
 -7.9000002E-04     5.660492    
 -7.8950002E-04     5.894341    
 -7.8900001E-04     6.158972    
 -7.8850001E-04     6.433197    
 -7.8800000E-04     6.694944    
 -7.8750000E-04     6.923503    
 -7.8700000E-04     7.101644    
 -7.8649999E-04     7.217388    
 -7.8599999E-04     7.265241    
 -7.8549999E-04     7.246765    
 -7.8499998E-04     7.170416    
 -7.8449998E-04     7.050662    
 -7.8399997E-04     6.906477    
 -7.8350003E-04     6.759356    
 -7.8300002E-04     6.631057    
 -7.8250002E-04     6.541311    
 -7.8200002E-04     6.505733    
 -7.8150001E-04     6.534159    
 -7.8100001E-04     6.629580    
 -7.8050001E-04     6.787805    
 -7.8000000E-04     6.997860    
 -7.7950000E-04     7.243130    
 -7.7899999E-04     7.503083    
 -7.7849999E-04     7.755435    
 -7.7799999E-04     7.978503    
 -7.7749998E-04     8.153523    
 -7.7699998E-04     8.266667    
 -7.7649998E-04     8.310557    
 -7.7599997E-04     8.285112    
 -7.7550003E-04     8.197629    
 -7.7500002E-04     8.062091    
 -7.7450002E-04     7.897755    
 -7.7400001E-04     7.727190    
 -7.7350001E-04     7.573935    
 -7.7300001E-04     7.460043    
 -7.7250000E-04     7.403770    
 -7.7200000E-04     7.417623    
 -7.7150000E-04     7.507022    
 -7.7099999E-04     7.669675    
 -7.7049999E-04     7.895766    
 -7.6999998E-04     8.168924    
 -7.6949998E-04     8.467891    
 -7.6899998E-04     8.768700    
 -7.6849997E-04     9.047159    
 -7.6800003E-04     9.281361    
 -7.6750002E-04     9.453965    
 -7.6700002E-04     9.554027    
 -7.6650002E-04     9.578140    
 -7.6600001E-04     9.530817    
 -7.6550001E-04     9.424024    
 -7.6500000E-04     9.275947    
 -7.6450000E-04     9.109090    
 -7.6400000E-04     8.947925    
 -7.6349999E-04     8.816318    
 -7.6299999E-04     8.735026    
 -7.6249999E-04     8.719506    
 -7.6199998E-04     8.778282    
 -7.6149998E-04     8.912039    
 -7.6099997E-04     9.113542    
 -7.6050003E-04     9.368402    
 -7.6000002E-04     9.656593    
 -7.5950002E-04     9.954573    
 -7.5900002E-04     10.23778    
 -7.5850001E-04     10.48327    
 -7.5800001E-04     10.67215    
 -7.5750001E-04     10.79160    
 -7.5700000E-04     10.83631    
 -7.5650000E-04     10.80902    
 -7.5599999E-04     10.72029    
 -7.5549999E-04     10.58741    
 -7.5499999E-04     10.43252    
 -7.5449998E-04     10.28032    
 -7.5399998E-04     10.15540    
 -7.5349997E-04     10.07958    
 -7.5299997E-04     10.06956    
 -7.5250003E-04     10.13509    
 -7.5200002E-04     10.27784    
 -7.5150002E-04     10.49117    
 -7.5100001E-04     10.76077    
 -7.5050001E-04     11.06613    
 -7.5000001E-04     11.38268    
 -7.4950000E-04     11.68440    
 -7.4900000E-04     11.94661    
 -7.4850000E-04     12.14858    
 -7.4799999E-04     12.27591    
 -7.4749999E-04     12.32203    
 -7.4699998E-04     12.28908    
 -7.4649998E-04     12.18776    
 -7.4599998E-04     12.03630    