 -1.2000001E-03    1.0000000E-24
 -1.1995001E-03    1.0000000E-24
 -1.1990000E-03    1.0000000E-24
 -1.1985000E-03    1.0000000E-24
 -1.1980000E-03    1.0000000E-24
 -1.1975000E-03    1.0000000E-24
 -1.1970000E-03    1.0000000E-24
 -1.1965000E-03    1.0000000E-24
 -1.1960000E-03    1.0000001E-24
 -1.1955000E-03   -1.2253649E-23
 -1.1950000E-03   -2.3826096E-22
 -1.1945000E-03   -2.2588544E-21
 -1.1940000E-03   -1.4848340E-20
 -1.1935000E-03   -7.6171250E-20
 -1.1930000E-03   -3.2459182E-19
 -1.1925000E-03   -1.1942009E-18
 -1.1920000E-03   -3.8931702E-18
 -1.1915000E-03   -1.1456547E-17
 -1.1910000E-03   -3.0850594E-17
 -1.1905000E-03   -7.6810324E-17
 -1.1900000E-03   -1.7821990E-16
 -1.1895000E-03   -3.8770363E-16
 -1.1890000E-03   -7.9436465E-16
 -1.1885000E-03   -1.5378372E-15
 -1.1880000E-03   -2.8184710E-15
 -1.1875000E-03   -4.8930311E-15
 -1.1870000E-03   -8.0375482E-15
 -1.1865000E-03   -1.2449234E-14
 -1.1860000E-03   -1.8049118E-14
 -1.1854999E-03   -2.4139175E-14
 -1.1849999E-03   -2.8867035E-14
 -1.1845001E-03   -2.8464803E-14
 -1.1840001E-03   -1.6264552E-14
 -1.1835000E-03    1.8439208E-14
 -1.1830000E-03    9.1502909E-14
 -1.1825000E-03    2.2469660E-13
 -1.1820000E-03    4.4560419E-13
 -1.1815000E-03    7.8594542E-13
 -1.1810000E-03    1.2774206E-12
 -1.1805000E-03    1.9440671E-12
 -1.1800000E-03    2.7901624E-12
 -1.1795000E-03    3.7829887E-12
 -1.1790000E-03    4.8304043E-12
 -1.1785000E-03    5.7542131E-12
 -1.1780000E-03    6.2618413E-12
 -1.1775000E-03    5.9207903E-12
 -1.1770000E-03    4.1426181E-12
 -1.1765000E-03    1.8555430E-13
 -1.1760000E-03   -6.8131516E-12
 -1.1755000E-03   -1.7762939E-11
 -1.1750000E-03   -3.3491959E-11
 -1.1745000E-03   -5.4556481E-11
 -1.1740000E-03   -8.0984539E-11
 -1.1735000E-03   -1.1196005E-10
 -1.1730000E-03   -1.4546669E-10
 -1.1725000E-03   -1.7792701E-10
 -1.1720000E-03   -2.0389095E-10
 -1.1715000E-03   -2.1584652E-10
 -1.1710000E-03   -2.0424135E-10
 -1.1704999E-03   -1.5781342E-10
 -1.1699999E-03   -6.4328730E-11
 -1.1695001E-03    8.8193085E-11
 -1.1690001E-03    3.0971822E-10
 -1.1685000E-03    6.0591338E-10
 -1.1680000E-03    9.7542274E-10
 -1.1675000E-03    1.4068933E-09
 -1.1670000E-03    1.8760431E-09
 -1.1665000E-03    2.3431814E-09
 -1.1660000E-03    2.7516835E-09
 -1.1655000E-03    3.0280012E-09
 -1.1650000E-03    3.0837943E-09
 -1.1645000E-03    2.8207214E-09
 -1.1640000E-03    2.1382738E-09
 -1.1635000E-03    9.4479291E-10
 -1.1630000E-03   -8.2854273E-10
 -1.1625000E-03   -3.2114249E-09
 -1.1620000E-03   -6.1769838E-09
 -1.1615000E-03   -9.6249195E-09
 -1.1610000E-03   -1.3367391E-08
 -1.1605000E-03   -1.7120209E-08
 -1.1600000E-03   -2.0502114E-08
 -1.1595000E-03   -2.3044693E-08
 -1.1590000E-03   -2.4215222E-08
 -1.1585000E-03   -2.3453648E-08
 -1.1580000E-03   -2.0223839E-08
 -1.1575000E-03   -1.4077503E-08
 -1.1570000E-03   -4.7272719E-09
 -1.1565000E-03    7.8765572E-09
 -1.1560000E-03    2.3473138E-08
 -1.1555000E-03    4.1431136E-08
 -1.1549999E-03    6.0711848E-08
 -1.1544999E-03    7.9865572E-08
 -1.1540001E-03    9.7070355E-08
 -1.1535001E-03    1.1021997E-07
 -1.1530000E-03    1.1706402E-07
 -1.1525000E-03    1.1539836E-07
 -1.1520000E-03    1.0329764E-07
 -1.1515000E-03    7.9375489E-08
 -1.1510000E-03    4.3051134E-08
 -1.1505000E-03   -5.2045097E-09
 -1.1500000E-03   -6.3674179E-08
 -1.1495000E-03   -1.2928359E-07
 -1.1490000E-03   -1.9760550E-07
 -1.1485000E-03   -2.6300415E-07
 -1.1480000E-03   -3.1893558E-07
 -1.1475000E-03   -3.5840611E-07
 -1.1470000E-03   -3.7457576E-07
 -1.1465000E-03   -3.6147242E-07
 -1.1460000E-03   -3.1476628E-07
 -1.1455000E-03   -2.3253460E-07
 -1.1450000E-03   -1.1593441E-07
 -1.1445000E-03    3.0306694E-08
 -1.1440000E-03    1.9767043E-07
 -1.1435000E-03    3.7397655E-07
 -1.1430000E-03    5.4391603E-07
 -1.1425000E-03    6.9001362E-07
 -1.1420000E-03    7.9400235E-07
 -1.1415000E-03    8.3854519E-07
 -1.1410000E-03    8.0919125E-07
 -1.1405000E-03    6.9640402E-07
 -1.1399999E-03    4.9746194E-07
 -1.1394999E-03    2.1800759E-07
 -1.1390001E-03   -1.2698520E-07
 -1.1385001E-03   -5.1303778E-07
 -1.1380001E-03   -9.0695352E-07
 -1.1375000E-03   -1.2686614E-06
 -1.1370000E-03   -1.5541194E-06
 -1.1365000E-03   -1.7191683E-06
 -1.1360000E-03   -1.7241073E-06
 -1.1355000E-03   -1.5386454E-06
 -1.1350000E-03   -1.1467794E-06
 -1.1345000E-03   -5.5107779E-07
 -1.1340000E-03    2.2418092E-07
 -1.1335000E-03    1.1315452E-06
 -1.1330000E-03    2.1010519E-06
 -1.1325000E-03    3.0433173E-06
 -1.1320000E-03    3.8551634E-06
 -1.1315000E-03    4.4276471E-06
 -1.1310000E-03    4.6560795E-06
 -1.1305000E-03    4.4513527E-06
 -1.1300000E-03    3.7516545E-06
 -1.1295000E-03    2.5334275E-06
 -1.1290000E-03    8.2035473E-07
 -1.1285000E-03   -1.3108744E-06
 -1.1280000E-03   -3.7291225E-06
 -1.1275000E-03   -6.2525419E-06
 -1.1270000E-03   -8.6579494E-06
 -1.1265000E-03   -1.0695813E-05
 -1.1260000E-03   -1.2110241E-05
 -1.1255000E-03   -1.2662786E-05
 -1.1250000E-03   -1.2158276E-05
 -1.1244999E-03   -1.0470474E-05
 -1.1239999E-03   -7.5649568E-06
 -1.1235001E-03   -3.5165799E-06
 -1.1230001E-03    1.4810154E-06
 -1.1225000E-03    7.1159698E-06
 -1.1220000E-03    1.2970269E-05
 -1.1215000E-03    1.8543808E-05
 -1.1210000E-03    2.3289836E-05
 -1.1205000E-03    2.6659967E-05
 -1.1200000E-03    2.8155746E-05
 -1.1195000E-03    2.7382677E-05
 -1.1190000E-03    2.4101830E-05
 -1.1185000E-03    1.8273720E-05
 -1.1180000E-03    1.0089137E-05
 -1.1175000E-03   -1.7775845E-08
 -1.1170000E-03   -1.1377849E-05
 -1.1165000E-03   -2.3118655E-05
 -1.1160000E-03   -3.4219731E-05
 -1.1155000E-03   -4.3589058E-05
 -1.1150000E-03   -5.0156112E-05
 -1.1145000E-03   -5.2974836E-05
 -1.1140000E-03   -5.1327825E-05
 -1.1135000E-03   -4.4821983E-05
 -1.1130000E-03   -3.3465465E-05
 -1.1125000E-03   -1.7716198E-05
 -1.1120000E-03    1.5060010E-06
 -1.1115000E-03    2.2849408E-05
 -1.1110000E-03    4.4604581E-05
 -1.1105000E-03    6.4821048E-05
 -1.1100000E-03    8.1460399E-05
 -1.1094999E-03    9.2575552E-05
 -1.1089999E-03    9.6502212E-05
 -1.1084999E-03    9.2045935E-05
 -1.1080001E-03    7.8646408E-05
 -1.1075001E-03    5.6501089E-05
 -1.1070000E-03    2.6631738E-05
 -1.1065000E-03   -9.1184784E-06
 -1.1060000E-03   -4.8164955E-05
 -1.1055000E-03   -8.7339358E-05
 -1.1050000E-03   -1.2311869E-04
 -1.1045000E-03   -1.5191179E-04
 -1.1040000E-03   -1.7038253E-04
 -1.1035000E-03   -1.7578295E-04
 -1.1030000E-03   -1.6626646E-04
 -1.1025000E-03   -1.4114931E-04
 -1.1020000E-03   -1.0109081E-04
 -1.1015000E-03   -4.8166981E-05
 -1.1010000E-03    1.4179708E-05
 -1.1005000E-03    8.1322352E-05
 -1.1000000E-03    1.4775911E-04
 -1.0995000E-03    2.0753367E-04
 -1.0990000E-03    2.5473797E-04
 -1.0985000E-03    2.8405807E-04
 -1.0980000E-03    2.9131596E-04
 -1.0975000E-03    2.7395631E-04
 -1.0970000E-03    2.3142736E-04
 -1.0965000E-03    1.6541037E-04
 -1.0960000E-03    7.9862250E-05
 -1.0955000E-03   -1.9149527E-05
 -1.0950000E-03   -1.2382322E-04
 -1.0945000E-03   -2.2519389E-04
 -1.0939999E-03   -3.1386275E-04
 -1.0934999E-03   -3.8083078E-04
 -1.0930001E-03   -4.1836660E-04
 -1.0925001E-03   -4.2083071E-04
 -1.0920000E-03   -3.8537409E-04
 -1.0915000E-03   -3.1243463E-04
 -1.0910000E-03   -2.0596705E-04
 -1.0905000E-03   -7.3361742E-05
 -1.0900000E-03    7.4966360E-05
 -1.0895000E-03    2.2630853E-04
 -1.0890000E-03    3.6667031E-04
 -1.0885000E-03    4.8198545E-04
 -1.0880000E-03    5.5943790E-04
 -1.0875000E-03    5.8877625E-04
 -1.0870000E-03    5.6349509E-04
 -1.0865000E-03    4.8176068E-04
 -1.0860000E-03    3.4697086E-04
 -1.0855000E-03    1.6786656E-04
 -1.0850000E-03   -4.1854204E-05
 -1.0845000E-03   -2.6442477E-04
 -1.0840000E-03   -4.7935863E-04
 -1.0835000E-03   -6.6516956E-04
 -1.0830000E-03   -8.0133154E-04
 -1.0825000E-03   -8.7031338E-04
 -1.0820000E-03   -8.5950131E-04
 -1.0815000E-03   -7.6282019E-04
 -1.0810000E-03   -5.8187387E-04
 -1.0805000E-03   -3.2645752E-04
 -1.0800000E-03   -1.4342556E-05
 -1.0795000E-03    3.2970807E-04
 -1.0790000E-03    6.7566440E-04
 -1.0784999E-03    9.9059439E-04
 -1.0779999E-03    1.2415005E-03
 -1.0775001E-03    1.3984040E-03
 -1.0770001E-03    1.4374073E-03
 -1.0765000E-03    1.3434516E-03
 -1.0760000E-03    1.1124854E-03
 -1.0755000E-03    7.5279974E-04
 -1.0750000E-03    2.8533468E-04
 -1.0745000E-03   -2.5714925E-04
 -1.0740000E-03   -8.3205337E-04
 -1.0735000E-03   -1.3899851E-03
 -1.0730000E-03   -1.8786697E-03
 -1.0725000E-03   -2.2474437E-03
 -1.0720000E-03   -2.4519623E-03
 -1.0715000E-03   -2.4587160E-03
 -1.0710000E-03   -2.2489282E-03
 -1.0705000E-03   -1.8214380E-03
 -1.0700000E-03   -1.1942323E-03
 -1.0695000E-03   -4.0438736E-04
 -1.0690000E-03    4.9369200E-04
 -1.0685000E-03    1.4317021E-03
 -1.0680000E-03    2.3323554E-03
 -1.0675000E-03    3.1154510E-03
 -1.0670000E-03    3.7046429E-03
 -1.0665000E-03    4.0343585E-03
 -1.0660000E-03    4.0562674E-03
 -1.0655000E-03    3.7447012E-03
 -1.0650000E-03    3.1004737E-03
 -1.0645000E-03    2.1526720E-03
 -1.0640000E-03    9.5811574E-04
 -1.0634999E-03   -4.0161054E-04
 -1.0629999E-03   -1.8254498E-03
 -1.0625001E-03   -3.2001787E-03
 -1.0620001E-03   -4.4092187E-03
 -1.0615001E-03   -5.3422810E-03
 -1.0610000E-03   -5.9050648E-03
 -1.0605000E-03   -6.0281800E-03
 -1.0600000E-03   -5.6744772E-03
 -1.0595000E-03   -4.8440732E-03
 -1.0590000E-03   -3.5765069E-03
 -1.0585000E-03   -1.9496849E-03
 -1.0580000E-03   -7.5534670E-05
 -1.0575000E-03    1.9074440E-03
 -1.0570000E-03    3.8442560E-03
 -1.0565000E-03    5.5753984E-03
 -1.0560000E-03    6.9498410E-03
 -1.0555000E-03    7.8379484E-03
 -1.0550000E-03    8.1432564E-03
 -1.0545000E-03    7.8120534E-03
 -1.0540000E-03    6.8398551E-03
 -1.0535000E-03    5.2740932E-03
 -1.0530000E-03    3.2126226E-03
 -1.0525000E-03    7.9798285E-04
 -1.0520000E-03   -1.7922811E-03
 -1.0515000E-03   -4.3586018E-03
 -1.0510000E-03   -6.6947248E-03
 -1.0505000E-03   -8.6042210E-03
 -1.0500000E-03   -9.9168494E-03
 -1.0495000E-03   -1.0503394E-02
 -1.0490000E-03   -1.0287722E-02
 -1.0485000E-03   -9.2549296E-03
 -1.0479999E-03   -7.4547883E-03
 -1.0474999E-03   -5.0000404E-03
 -1.0470001E-03   -2.0595100E-03
 -1.0465001E-03    1.1535628E-03
 -1.0460000E-03    4.3971678E-03
 -1.0455000E-03    7.4189808E-03
 -1.0450000E-03    9.9762073E-03
 -1.0445000E-03    1.1855226E-02
 -1.0440000E-03    1.2889432E-02
 -1.0435000E-03    1.2973769E-02
 -1.0430000E-03    1.2074692E-02
 -1.0425000E-03    1.0234637E-02
 -1.0420000E-03    7.5705028E-03
 -1.0415000E-03    4.2661442E-03
 -1.0410000E-03    5.5934716E-04
 -1.0405000E-03   -3.2757670E-03
 -1.0400000E-03   -6.9495793E-03
 -1.0395000E-03   -1.0179429E-02
 -1.0390000E-03   -1.2711905E-02
 -1.0385000E-03   -1.4343180E-02
 -1.0380000E-03   -1.4935721E-02
 -1.0375000E-03   -1.4429979E-02
 -1.0370000E-03   -1.2850058E-02
 -1.0365000E-03   -1.0302833E-02
 -1.0360000E-03   -6.9705104E-03
 -1.0355000E-03   -3.0971596E-03
 -1.0350000E-03    1.0297629E-03
 -1.0345000E-03    5.1014679E-03
 -1.0340000E-03    8.8117281E-03
 -1.0335000E-03    1.1880722E-02
 -1.0329999E-03    1.4076925E-02
 -1.0324999E-03    1.5235286E-02
 -1.0319999E-03    1.5270237E-02
 -1.0315001E-03    1.4182461E-02
 -1.0310001E-03    1.2058885E-02
 -1.0305000E-03    9.0658618E-03
 -1.0300000E-03    5.4360833E-03
 -1.0295000E-03    1.4502559E-03
 -1.0290000E-03   -2.5850048E-03
 -1.0285000E-03   -6.3613020E-03
 -1.0280000E-03   -9.5926914E-03
 -1.0275000E-03   -1.2038086E-02
 -1.0270000E-03   -1.3520063E-02
 -1.0265000E-03   -1.3938569E-02
 -1.0260000E-03   -1.3278445E-02
 -1.0255000E-03   -1.1610191E-02
 -1.0250000E-03   -9.0838941E-03
 -1.0245000E-03   -5.9168446E-03
 -1.0240000E-03   -2.3758069E-03
 -1.0235000E-03    1.2446326E-03
 -1.0230000E-03    4.6459143E-03
 -1.0225000E-03    7.5496580E-03
 -1.0220000E-03    9.7202053E-03
 -1.0215000E-03    1.0983750E-02
 -1.0210000E-03    1.1242541E-02
 -1.0205000E-03    1.0483010E-02
 -1.0200000E-03    8.7771639E-03
 -1.0195000E-03    6.2770955E-03
 -1.0190000E-03    3.2030058E-03
 -1.0185000E-03   -1.7435849E-04
 -1.0180000E-03   -3.5555102E-03
 -1.0174999E-03   -6.6366009E-03
 -1.0169999E-03   -9.1344696E-03
 -1.0165001E-03   -1.0810417E-02
 -1.0160001E-03   -1.1490801E-02
 -1.0155000E-03   -1.1082811E-02
 -1.0150000E-03   -9.5840832E-03
 -1.0145000E-03   -7.0852973E-03
 -1.0140000E-03   -3.7654089E-03
 -1.0135000E-03    1.2029255E-04
 -1.0130000E-03    4.2585395E-03
 -1.0125000E-03    8.3016092E-03
 -1.0120000E-03    1.1894328E-02
 -1.0115000E-03    1.4702599E-02
 -1.0110000E-03    1.6441271E-02
 -1.0105000E-03    1.6899211E-02
 -1.0100000E-03    1.5959550E-02
 -1.0095000E-03    1.3613331E-02
 -1.0090000E-03    9.9653266E-03
 -1.0085000E-03    5.2312086E-03
 -1.0080000E-03   -2.7404702E-04
 -1.0075000E-03   -6.1560171E-03
 -1.0070000E-03   -1.1967798E-02
 -1.0065000E-03   -1.7242355E-02
 -1.0060000E-03   -2.1528028E-02
 -1.0055000E-03   -2.4424642E-02
 -1.0050000E-03   -2.5617503E-02
 -1.0045000E-03   -2.4906548E-02
 -1.0040000E-03   -2.2228226E-02
 -1.0035000E-03   -1.7668003E-02
 -1.0030000E-03   -1.1462105E-02
 -1.0025000E-03   -3.9877249E-03
 -1.0019999E-03    4.2581134E-03
 -1.0014999E-03    1.2690073E-02
 -1.0010001E-03    2.0674538E-02
 -1.0005001E-03    2.7575566E-02
 -1.0000000E-03    3.2803558E-02
 -9.9950004E-04    3.5863072E-02
 -9.9900004E-04    3.6396030E-02
 -9.9850004E-04    3.4216788E-02
 -9.9800003E-04    2.9335869E-02
 -9.9750003E-04    2.1969972E-02
 -9.9700002E-04    1.2536680E-02
 -9.9650002E-04    1.6334931E-03
 -9.9600002E-04   -9.9980664E-03
 -9.9550001E-04   -2.1521289E-02
 -9.9500001E-04   -3.2062970E-02
 -9.9450001E-04   -4.0777914E-02
 -9.9400000E-04   -4.6914596E-02
 -9.9350000E-04   -4.9876921E-02
 -9.9299999E-04   -4.9277108E-02
 -9.9249999E-04   -4.4975169E-02
 -9.9199999E-04   -3.7101239E-02
 -9.9149998E-04   -2.6058188E-02
 -9.9099998E-04   -1.2503408E-02
 -9.9049998E-04    2.6898435E-03
 -9.8999997E-04    1.8489454E-02
 -9.8949997E-04    3.3776250E-02
 -9.8899996E-04    4.7425635E-02
 -9.8849996E-04    5.8393180E-02
 -9.8799996E-04    6.5797701E-02
 -9.8749995E-04    6.8995252E-02
 -9.8699995E-04    6.7637928E-02
 -9.8649994E-04    6.1712284E-02
 -9.8600006E-04    5.1553637E-02
 -9.8550005E-04    3.7834212E-02
 -9.8500005E-04    2.1525020E-02
 -9.8450005E-04    3.8335256E-03
 -9.8400004E-04   -1.3878946E-02
 -9.8350004E-04   -3.0194363E-02
 -9.8300003E-04   -4.3742739E-02
 -9.8250003E-04   -5.3306580E-02
 -9.8200003E-04   -5.7917051E-02
 -9.8150002E-04   -5.6934152E-02
 -9.8100002E-04   -5.0104398E-02
 -9.8050002E-04   -3.7590869E-02
 -9.8000001E-04   -1.9972712E-02
 -9.7950001E-04    1.7866878E-03
 -9.7900000E-04    2.6401056E-02
 -9.7850000E-04    5.2348144E-02
 -9.7800000E-04    7.7976055E-02
 -9.7749999E-04    0.1016213    
 -9.7699999E-04    0.1217296    
 -9.7649998E-04    0.1369707    
 -9.7599998E-04    0.1463381    
 -9.7549998E-04    0.1492261    
 -9.7499997E-04    0.1454776    
 -9.7450003E-04    0.1353996    
 -9.7400002E-04    0.1197445    
 -9.7350002E-04    9.9658087E-02
 -9.7300002E-04    7.6598227E-02
 -9.7250001E-04    5.2230775E-02
 -9.7200001E-04    2.8309500E-02
 -9.7150001E-04    6.5498762E-03
 -9.7100000E-04   -1.1494112E-02
 -9.7050000E-04   -2.4540782E-02
 -9.6999999E-04   -3.1670887E-02
 -9.6949999E-04   -3.2390390E-02
 -9.6899999E-04   -2.6661338E-02
 -9.6849998E-04   -1.4898732E-02
 -9.6799998E-04    2.0660234E-03
 -9.6749997E-04    2.3051996E-02
 -9.6700003E-04    4.6620499E-02
 -9.6650003E-04    7.1184509E-02
 -9.6600002E-04    9.5127210E-02
 -9.6550002E-04    0.1169206    
 -9.6500001E-04    0.1352348    
 -9.6450001E-04    0.1490312    
 -9.6400001E-04    0.1576302    
 -9.6350000E-04    0.1607522    
 -9.6300000E-04    0.1585263    
 -9.6249999E-04    0.1514685    
 -9.6199999E-04    0.1404313    
 -9.6149999E-04    0.1265290    
 -9.6099998E-04    0.1110449    
 -9.6049998E-04    9.5328912E-02
 -9.5999998E-04    8.0691993E-02
 -9.5949997E-04    6.8307079E-02
 -9.5900003E-04    5.9123233E-02
 -9.5850002E-04    5.3799335E-02
 -9.5800002E-04    5.2662108E-02
 -9.5750001E-04    5.5690985E-02
 -9.5700001E-04    6.2530391E-02
 -9.5650001E-04    7.2527856E-02
 -9.5600000E-04    8.4794395E-02
 -9.5550000E-04    9.8282054E-02
 -9.5500000E-04    0.1118723    
 -9.5449999E-04    0.1244682    
 -9.5399999E-04    0.1350829    
 -9.5349998E-04    0.1429186    
 -9.5299998E-04    0.1474291    
 -9.5249998E-04    0.1483611    
 -9.5199997E-04    0.1457735    
 -9.5150003E-04    0.1400303    
 -9.5100002E-04    0.1317704    
 -9.5050002E-04    0.1218556    
 -9.5000002E-04    0.1113013    
 -9.4950001E-04    0.1011944    
 -9.4900001E-04    9.2605822E-02
 -9.4850000E-04    8.6503528E-02
 -9.4800000E-04    8.3672225E-02
 -9.4750000E-04    8.4646717E-02
 -9.4699999E-04    8.9663468E-02
 -9.4649999E-04    9.8634258E-02
 -9.4599999E-04    0.1111443    
 -9.4549998E-04    0.1264754    
 -9.4499998E-04    0.1436526    
 -9.4449997E-04    0.1615118    
 -9.4400003E-04    0.1787838    
 -9.4350002E-04    0.1941878    
 -9.4300002E-04    0.2065300    
 -9.4250002E-04    0.2147976    
 -9.4200001E-04    0.2182432    
 -9.4150001E-04    0.2164514    
 -9.4100001E-04    0.2093839    
 -9.4050000E-04    0.1973966    
 -9.4000000E-04    0.1812292    
 -9.3949999E-04    0.1619644    
 -9.3899999E-04    0.1409610    
 -9.3849999E-04    0.1197627    
 -9.3799998E-04    9.9990077E-02
 -9.3749998E-04    8.3222307E-02
 -9.3699998E-04    7.0877507E-02
 -9.3649997E-04    6.4100340E-02
 -9.3600003E-04    6.3665904E-02
 -9.3550002E-04    6.9907859E-02
 -9.3500002E-04    8.2677118E-02
 -9.3450001E-04    0.1013357    
 -9.3400001E-04    0.1247877    
 -9.3350001E-04    0.1515461    
 -9.3300000E-04    0.1798322    
 -9.3250000E-04    0.2077017    
 -9.3200000E-04    0.2331872    
 -9.3149999E-04    0.2544487    
 -9.3099999E-04    0.2699187    
 -9.3049998E-04    0.2784323    
 -9.2999998E-04    0.2793298    
 -9.2949998E-04    0.2725234    
 -9.2899997E-04    0.2585217    
 -9.2850003E-04    0.2384081    
 -9.2800002E-04    0.2137729    
 -9.2750002E-04    0.1866033    
 -9.2700002E-04    0.1591389    
 -9.2650001E-04    0.1337021    
 -9.2600001E-04    0.1125167    
 -9.2550000E-04    9.7529180E-02
 -9.2500000E-04    9.0246484E-02
 -9.2450000E-04    9.1604188E-02
 -9.2399999E-04    0.1018766    
 -9.2349999E-04    0.1206373    
 -9.2299999E-04    0.1467746    
 -9.2249998E-04    0.1785624    
 -9.2199998E-04    0.2137822    
 -9.2149997E-04    0.2498876    
 -9.2100003E-04    0.2841995    
 -9.2050002E-04    0.3141159    
 -9.2000002E-04    0.3373212    
 -9.1950002E-04    0.3519762    
 -9.1900001E-04    0.3568746    
 -9.1850001E-04    0.3515518    
 -9.1800001E-04    0.3363358    
 -9.1750000E-04    0.3123363    
 -9.1700000E-04    0.2813700    
 -9.1649999E-04    0.2458295    
 -9.1599999E-04    0.2085020    
 -9.1549999E-04    0.1723562    
 -9.1499998E-04    0.1403101    
 -9.1449998E-04    0.1150012    
 -9.1399997E-04    9.8575585E-02
 -9.1349997E-04    9.2515051E-02
 -9.1300003E-04    9.7515106E-02
 -9.1250002E-04    0.1134248    
 -9.1200002E-04    0.1392533    
 -9.1150001E-04    0.1732436    
 -9.1100001E-04    0.2130069    
 -9.1050001E-04    0.2557075    
 -9.1000000E-04    0.2982835    
 -9.0950000E-04    0.3376851    
 -9.0899999E-04    0.3711120    
 -9.0849999E-04    0.3962306    
 -9.0799999E-04    0.4113528    
 -9.0749998E-04    0.4155647    
 -9.0699998E-04    0.4087917    
 -9.0649998E-04    0.3917994    
 -9.0599997E-04    0.3661271    
 -9.0550003E-04    0.3339618    
 -9.0500002E-04    0.2979638    
 -9.0450002E-04    0.2610570    
 -9.0400001E-04    0.2262015    
 -9.0350001E-04    0.1961676    
 -9.0300001E-04    0.1733274    
 -9.0250000E-04    0.1594816    
 -9.0200000E-04    0.1557333    
 -9.0150000E-04    0.1624180    
 -9.0099999E-04    0.1790940    
 -9.0049999E-04    0.2045929    
 -8.9999998E-04    0.2371234    
 -8.9949998E-04    0.2744203    
 -8.9899998E-04    0.3139256    
 -8.9849997E-04    0.3529860    
 -8.9800003E-04    0.3890524    
 -8.9750002E-04    0.4198646    
 -8.9700002E-04    0.4436100    
 -8.9650002E-04    0.4590426    
 -8.9600001E-04    0.4655570    
 -8.9550001E-04    0.4632122    
 -8.9500000E-04    0.4527063    
 -8.9450000E-04    0.4353055    
 -8.9400000E-04    0.4127345    
 -8.9349999E-04    0.3870381    
 -8.9299999E-04    0.3604251    
 -8.9249999E-04    0.3351061    
 -8.9199998E-04    0.3131372    
 -8.9149998E-04    0.2962808    
 -8.9099997E-04    0.2858905    
 -8.9050003E-04    0.2828296    
 -8.9000002E-04    0.2874242    
 -8.8950002E-04    0.2994556    
 -8.8900002E-04    0.3181878    
 -8.8850001E-04    0.3424295    
 -8.8800001E-04    0.3706240    
 -8.8750001E-04    0.4009604    
 -8.8700000E-04    0.4314992    
 -8.8650000E-04    0.4603034    
 -8.8599999E-04    0.4855677    
 -8.8549999E-04    0.5057381    
 -8.8499999E-04    0.5196137    
 -8.8449998E-04    0.5264275    
 -8.8399998E-04    0.5258982    
 -8.8349998E-04    0.5182523    
 -8.8299997E-04    0.5042142    
 -8.8250003E-04    0.4849641    
 -8.8200002E-04    0.4620654    
 -8.8150002E-04    0.4373662    
 -8.8100001E-04    0.4128793    
 -8.8050001E-04    0.3906473    
 -8.8000001E-04    0.3726018    
 -8.7950000E-04    0.3604249    
 -8.7900000E-04    0.3554225    
 -8.7850000E-04    0.3584189    
 -8.7799999E-04    0.3696810    
 -8.7749999E-04    0.3888792    
 -8.7699998E-04    0.4150899    
 -8.7649998E-04    0.4468420    
 -8.7599998E-04    0.4822063    
 -8.7549997E-04    0.5189245    
 -8.7500003E-04    0.5545686    
 -8.7450002E-04    0.5867222    
 -8.7400002E-04    0.6131694    
 -8.7350002E-04    0.6320775    
 -8.7300001E-04    0.6421576    
 -8.7250001E-04    0.6427903    
 -8.7200000E-04    0.6341029    
 -8.7150000E-04    0.6169890    
 -8.7100000E-04    0.5930668    
 -8.7049999E-04    0.5645749    
 -8.6999999E-04    0.5342119    
 -8.6949999E-04    0.5049295    
 -8.6899998E-04    0.4796948    
 -8.6849998E-04    0.4612405    
 -8.6799997E-04    0.4518238    
 -8.6750003E-04    0.4530144    
 -8.6700002E-04    0.4655327    
 -8.6650002E-04    0.4891540    
 -8.6600002E-04    0.5226900    
 -8.6550001E-04    0.5640526    
 -8.6500001E-04    0.6103998    
 -8.6450001E-04    0.6583519    
 -8.6400000E-04    0.7042651    
 -8.6350000E-04    0.7445387    
 -8.6299999E-04    0.7759313    
 -8.6249999E-04    0.7958584    
 -8.6199999E-04    0.8026442    
 -8.6149998E-04    0.7957042    
 -8.6099998E-04    0.7756392    
 -8.6049997E-04    0.7442284    
 -8.5999997E-04    0.7043205    
 -8.5950003E-04    0.6596267    
 -8.5900002E-04    0.6144311    
 -8.5850002E-04    0.5732415    
 -8.5800001E-04    0.5404084    
 -8.5750001E-04    0.5197457    
 -8.5700001E-04    0.5141858    
 -8.5650000E-04    0.5254999    
 -8.5600000E-04    0.5541102    
 -8.5549999E-04    0.5990140    
 -8.5499999E-04    0.6578265    
 -8.5449999E-04    0.7269446    
 -8.5399998E-04    0.8018171    
 -8.5349998E-04    0.8773030    
 -8.5299998E-04    0.9480866    
 -8.5249997E-04     1.009115    
 -8.5200003E-04     1.056023    
 -8.5150002E-04     1.085501    
 -8.5100002E-04     1.095584    
 -8.5050002E-04     1.085832    
 -8.5000001E-04     1.057374    
 -8.4950001E-04     1.012833    
 -8.4900000E-04    0.9561173    
 -8.4850000E-04    0.8921050    
 -8.4800000E-04    0.8262490    
 -8.4749999E-04    0.7641315    
 -8.4699999E-04    0.7110112    
 -8.4649998E-04    0.6713979    
 -8.4599998E-04    0.6486949    
 -8.4549998E-04    0.6449355    
 -8.4499997E-04    0.6606388    
 -8.4450003E-04    0.6947931    
 -8.4400002E-04    0.7449690    
 -8.4350002E-04    0.8075492    
 -8.4300002E-04    0.8780529    
 -8.4250001E-04    0.9515262    
 -8.4200001E-04     1.022962    
 -8.4150000E-04     1.087715    
 -8.4100000E-04     1.141867    
 -8.4050000E-04     1.182528    
 -8.3999999E-04     1.208033    
 -8.3949999E-04     1.218026    
 -8.3899999E-04     1.213431    
 -8.3849998E-04     1.196311    
 -8.3799998E-04     1.169638    
 -8.3749997E-04     1.136988    
 -8.3700003E-04     1.102204    
 -8.3650002E-04     1.069046    
 -8.3600002E-04     1.040874    
 -8.3550002E-04     1.020373    
 -8.3500001E-04     1.009365    
 -8.3450001E-04     1.008706    
 -8.3400001E-04     1.018268    
 -8.3350000E-04     1.037028    
 -8.3300000E-04     1.063219    
 -8.3249999E-04     1.094551    
 -8.3199999E-04     1.128455    
 -8.3149999E-04     1.162345    
 -8.3099998E-04     1.193862    
 -8.3049998E-04     1.221068    
 -8.2999998E-04     1.242603    
 -8.2949997E-04     1.257757    
 -8.2900003E-04     1.266483    
 -8.2850002E-04     1.269344    
 -8.2800002E-04     1.267403    
 -8.2750001E-04     1.262074    
 -8.2700001E-04     1.254951    
 -8.2650001E-04     1.247644    
 -8.2600000E-04     1.241620    
 -8.2550000E-04     1.238085    
 -8.2500000E-04     1.237903    
 -8.2449999E-04     1.241561    
 -8.2399999E-04     1.249185    
 -8.2349998E-04     1.260585    
 -8.2299998E-04     1.275333    
 -8.2249998E-04     1.292861    
 -8.2199997E-04     1.312547    
 -8.2150003E-04     1.333801    
 -8.2100002E-04     1.356123    
 -8.2050002E-04     1.379129    
 -8.2000002E-04     1.402555    
 -8.1950001E-04     1.426224    
 -8.1900001E-04     1.449999    
 -8.1850000E-04     1.473724    
 -8.1800000E-04     1.497169    
 -8.1750000E-04     1.519986    
 -8.1699999E-04     1.541691    
 -8.1649999E-04     1.561683    
 -8.1599999E-04     1.579286    
 -8.1549998E-04     1.593834    
 -8.1499998E-04     1.604766    
 -8.1449997E-04     1.611747    
 -8.1400003E-04     1.614769    
 -8.1350002E-04     1.614242    
 -8.1300002E-04     1.611044    
 -8.1250002E-04     1.606525    
 -8.1200001E-04     1.602452    
 -8.1150001E-04     1.600897    
 -8.1100001E-04     1.604074    
 -8.1050000E-04     1.614136    
 -8.1000000E-04     1.632948    
 -8.0949999E-04     1.661867    
 -8.0899999E-04     1.701543    
 -8.0849999E-04     1.751770    
 -8.0799998E-04     1.811414    
 -8.0749998E-04     1.878422    
 -8.0699997E-04     1.949923    
 -8.0649997E-04     2.022421    
 -8.0600003E-04     2.092067    
 -8.0550002E-04     2.154985    
 -8.0500002E-04     2.207626    
 -8.0450001E-04     2.247117    
 -8.0400001E-04     2.271570    
 -8.0350001E-04     2.280313    
 -8.0300000E-04     2.274024    
 -8.0250000E-04     2.254742    
 -8.0200000E-04     2.225749    
 -8.0149999E-04     2.191330    
 -8.0099999E-04     2.156422    
 -8.0049998E-04     2.126188    
 -7.9999998E-04     2.105555    
 -7.9949998E-04     2.098742    
 -7.9899997E-04     2.108848    
 -7.9850003E-04     2.137523    
 -7.9800002E-04     2.184769    
 -7.9750002E-04     2.248885    
 -7.9700002E-04     2.326573    
 -7.9650001E-04     2.413200    
 -7.9600001E-04     2.503191    
 -7.9550000E-04     2.590529    
 -7.9500000E-04     2.669302    
 -7.9450000E-04     2.734259    
 -7.9399999E-04     2.781317    
 -7.9349999E-04     2.807969    
 -7.9299998E-04     2.813551    
 -7.9249998E-04     2.799337    
 -7.9199998E-04     2.768455    
 -7.9149997E-04     2.725622    
 -7.9100003E-04     2.676724    
 -7.9050002E-04     2.628278    
 -7.9000002E-04     2.586819    
 -7.8950002E-04     2.558284    
 -7.8900001E-04     2.547436    
 -7.8850001E-04     2.557399    
 -7.8800000E-04     2.589337    
 -7.8750000E-04     2.642322    
 -7.8700000E-04     2.713400    
 -7.8649999E-04     2.797852    
 -7.8599999E-04     2.889626    
 -7.8549999E-04     2.981903    
 -7.8499998E-04     3.067745    
 -7.8449998E-04     3.140759    
 -7.8399997E-04     3.195708    
 -7.8350003E-04     3.229028    
 -7.8300002E-04     3.239176    
 -7.8250002E-04     3.226794    
 -7.8200002E-04     3.194659    
 -7.8150001E-04     3.147427    
 -7.8100001E-04     3.091202    
 -7.8050001E-04     3.032950    
 -7.8000000E-04     2.979845    
 -7.7950000E-04     2.938576    
 -7.7899999E-04     2.914715    
 -7.7849999E-04     2.912181    
 -7.7799999E-04     2.932867    
 -7.7749998E-04     2.976466    
 -7.7699998E-04     3.040500    
 -7.7649998E-04     3.120568    
 -7.7599997E-04     3.210773    
 -7.7550003E-04     3.304292    
 -7.7500002E-04     3.394038    
 -7.7450002E-04     3.473331    
 -7.7400001E-04     3.536544    
 -7.7350001E-04     3.579624    
 -7.7300001E-04     3.600470    
 -7.7250000E-04     3.599112    
 -7.7200000E-04     3.577686    
 -7.7150000E-04     3.540203    
 -7.7099999E-04     3.492143    
 -7.7049999E-04     3.439912    
 -7.6999998E-04     3.390216    
 -7.6949998E-04     3.349423    
 -7.6899998E-04     3.322961    
 -7.6849997E-04     3.314833    
 -7.6800003E-04     3.327267    
 -7.6750002E-04     3.360560    
 -7.6700002E-04     3.413111    
 -7.6650002E-04     3.481639    
 -7.6600001E-04     3.561558    
 -7.6550001E-04     3.647479    
 -7.6500000E-04     3.733765    
 -7.6450000E-04     3.815094    
 -7.6400000E-04     3.886977    
 -7.6349999E-04     3.946157    
 -7.6299999E-04     3.990876    
 -7.6249999E-04     4.020970    
 -7.6199998E-04     4.037795    
 -7.6149998E-04     4.043989    
 -7.6099997E-04     4.043112    
 -7.6050003E-04     4.039200    
 -7.6000002E-04     4.036282    
 -7.5950002E-04     4.037921    
 -7.5900002E-04     4.046835    
 -7.5850001E-04     4.064615    
 -7.5800001E-04     4.091604    
 -7.5750001E-04     4.126922    
 -7.5700000E-04     4.168635    
 -7.5650000E-04     4.214062    
 -7.5599999E-04     4.260159    
 -7.5549999E-04     4.303946    
 -7.5499999E-04     4.342933    
 -7.5449998E-04     4.375465    
 -7.5399998E-04     4.400980    
 -7.5349997E-04     4.420117    
 -7.5299997E-04     4.434679    
 -7.5250003E-04     4.447436    
 -7.5200002E-04     4.461811    
 -7.5150002E-04     4.481452    
 -7.5100001E-04     4.509777    
 -7.5050001E-04     4.549505    
 -7.5000001E-04     4.602271    
 -7.4950000E-04     4.668329    
 -7.4900000E-04     4.746427    
 -7.4850000E-04     4.833835    
 -7.4799999E-04     4.926560    
 -7.4749999E-04     5.019712    
 -7.4699998E-04     5.107998    
 -7.4649998E-04     5.186285    
 -7.4599998E-04     5.250175    