 -1.2000001E-03    1.0000000E-24
 -1.1995001E-03    1.0000000E-24
 -1.1990000E-03    1.0000000E-24
 -1.1985000E-03    1.0000000E-24
 -1.1980000E-03    1.0000000E-24
 -1.1975000E-03    1.0000000E-24
 -1.1970000E-03    1.0000000E-24
 -1.1965000E-03    1.0000000E-24
 -1.1960000E-03    1.0000001E-24
 -1.1955000E-03    9.9999696E-25
 -1.1950000E-03    9.9702089E-25
 -1.1945000E-03    9.4999521E-25
 -1.1940000E-03    5.8285106E-25
 -1.1935000E-03   -1.2089205E-24
 -1.1930000E-03   -6.5611695E-24
 -1.1925000E-03   -9.9506828E-24
 -1.1920000E-03    6.1346248E-23
 -1.1915000E-03    6.1109871E-22
 -1.1910000E-03    3.3070630E-21
 -1.1905000E-03    1.3906178E-20
 -1.1900000E-03    4.9842550E-20
 -1.1895000E-03    1.5868016E-19
 -1.1890000E-03    4.5928738E-19
 -1.1885000E-03    1.2268956E-18
 -1.1880000E-03    3.0567126E-18
 -1.1875000E-03    7.1579355E-18
 -1.1870000E-03    1.5847665E-17
 -1.1865000E-03    3.3324830E-17
 -1.1860000E-03    6.6793544E-17
 -1.1854999E-03    1.2795088E-16
 -1.1849999E-03    2.3472477E-16
 -1.1845001E-03    4.1290545E-16
 -1.1840001E-03    6.9692156E-16
 -1.1835000E-03    1.1284446E-15
 -1.1830000E-03    1.7507739E-15
 -1.1825000E-03    2.5961204E-15
 -1.1820000E-03    3.6621440E-15
 -1.1815000E-03    4.8736688E-15
 -1.1810000E-03    6.0258411E-15
 -1.1805000E-03    6.7066447E-15
 -1.1800000E-03    6.2003176E-15
 -1.1795000E-03    3.3794433E-15
 -1.1790000E-03   -3.3971948E-15
 -1.1785000E-03   -1.6351398E-14
 -1.1780000E-03   -3.8272343E-14
 -1.1775000E-03   -7.2362723E-14
 -1.1770000E-03   -1.2186950E-13
 -1.1765000E-03   -1.8941683E-13
 -1.1760000E-03   -2.7596282E-13
 -1.1755000E-03   -3.7932567E-13
 -1.1750000E-03   -4.9227305E-13
 -1.1745000E-03   -6.0025205E-13
 -1.1740000E-03   -6.7895364E-13
 -1.1735000E-03   -6.9205817E-13
 -1.1730000E-03   -5.8968764E-13
 -1.1725000E-03   -3.0827630E-13
 -1.1720000E-03    2.2726431E-13
 -1.1715000E-03    1.0981044E-12
 -1.1710000E-03    2.3818087E-12
 -1.1704999E-03    4.1376104E-12
 -1.1699999E-03    6.3862492E-12
 -1.1695001E-03    9.0846627E-12
 -1.1690001E-03    1.2096765E-11
 -1.1685000E-03    1.5162789E-11
 -1.1680000E-03    1.7871128E-11
 -1.1675000E-03    1.9638121E-11
 -1.1670000E-03    1.9702630E-11
 -1.1665000E-03    1.7143301E-11
 -1.1660000E-03    1.0926694E-11
 -1.1655000E-03   -6.3178133E-15
 -1.1650000E-03   -1.6610517E-11
 -1.1645000E-03   -3.9561264E-11
 -1.1640000E-03   -6.9038407E-11
 -1.1635000E-03   -1.0448065E-10
 -1.1630000E-03   -1.4433052E-10
 -1.1625000E-03   -1.8579924E-10
 -1.1620000E-03   -2.2469049E-10
 -1.1615000E-03   -2.5532840E-10
 -1.1610000E-03   -2.7064048E-10
 -1.1605000E-03   -2.6244404E-10
 -1.1600000E-03   -2.2197798E-10
 -1.1595000E-03   -1.4070524E-10
 -1.1590000E-03   -1.1387792E-11
 -1.1585000E-03    1.7059863E-10
 -1.1580000E-03    4.0578205E-10
 -1.1575000E-03    6.8906203E-10
 -1.1570000E-03    1.0082911E-09
 -1.1565000E-03    1.3431740E-09
 -1.1560000E-03    1.6647164E-09
 -1.1555000E-03    1.9354676E-09
 -1.1549999E-03    2.1107802E-09
 -1.1544999E-03    2.1412681E-09
 -1.1540001E-03    1.9765525E-09
 -1.1535001E-03    1.5702725E-09
 -1.1530000E-03    8.8618068E-10
 -1.1525000E-03   -9.5032718E-11
 -1.1520000E-03   -1.3687262E-09
 -1.1515000E-03   -2.8998173E-09
 -1.1510000E-03   -4.6176747E-09
 -1.1505000E-03   -6.4133312E-09
 -1.1500000E-03   -8.1399500E-09
 -1.1495000E-03   -9.6173780E-09
 -1.1490000E-03   -1.0641377E-08
 -1.1485000E-03   -1.0997767E-08
 -1.1480000E-03   -1.0481258E-08
 -1.1475000E-03   -8.9181329E-09
 -1.1470000E-03   -6.1913767E-09
 -1.1465000E-03   -2.2661675E-09
 -1.1460000E-03    2.7868434E-09
 -1.1455000E-03    8.7734620E-09
 -1.1450000E-03    1.5366219E-08
 -1.1445000E-03    2.2105940E-08
 -1.1440000E-03    2.8417102E-08
 -1.1435000E-03    3.3638464E-08
 -1.1430000E-03    3.7069263E-08
 -1.1425000E-03    3.8029590E-08
 -1.1420000E-03    3.5931812E-08
 -1.1415000E-03    3.0357903E-08
 -1.1410000E-03    2.1136010E-08
 -1.1405000E-03    8.4079916E-09
 -1.1399999E-03   -7.3209590E-09
 -1.1394999E-03   -2.5159554E-08
 -1.1390001E-03   -4.3842483E-08
 -1.1385001E-03   -6.1783169E-08
 -1.1380001E-03   -7.7170029E-08
 -1.1375000E-03   -8.8104954E-08
 -1.1370000E-03   -9.2777988E-08
 -1.1365000E-03   -8.9667168E-08
 -1.1360000E-03   -7.7747465E-08
 -1.1355000E-03   -5.6688922E-08
 -1.1350000E-03   -2.7020871E-08
 -1.1345000E-03    9.7613810E-09
 -1.1340000E-03    5.1169827E-08
 -1.1335000E-03    9.3795130E-08
 -1.1330000E-03    1.3348738E-07
 -1.1325000E-03    1.6564796E-07
 -1.1320000E-03    1.8562331E-07
 -1.1315000E-03    1.8917790E-07
 -1.1310000E-03    1.7301244E-07
 -1.1305000E-03    1.3528090E-07
 -1.1300000E-03    7.6052316E-08
 -1.1295000E-03   -2.3411679E-09
 -1.1290000E-03   -9.5127405E-08
 -1.1285000E-03   -1.9513831E-07
 -1.1280000E-03   -2.9311073E-07
 -1.1275000E-03   -3.7825941E-07
 -1.1270000E-03   -4.3911191E-07
 -1.1265000E-03   -4.6456611E-07
 -1.1260000E-03   -4.4510085E-07
 -1.1255000E-03   -3.7404175E-07
 -1.1250000E-03   -2.4876201E-07
 -1.1244999E-03   -7.1683147E-08
 -1.1239999E-03    1.4906161E-07
 -1.1235001E-03    3.9942853E-07
 -1.1230001E-03    6.5982886E-07
 -1.1225000E-03    9.0611871E-07
 -1.1220000E-03    1.1112190E-06
 -1.1215000E-03    1.2473088E-06
 -1.1210000E-03    1.2884649E-06
 -1.1205000E-03    1.2135588E-06
 -1.1200000E-03    1.0091597E-06
 -1.1195000E-03    6.7215495E-07
 -1.1190000E-03    2.1177843E-07
 -1.1185000E-03   -3.4924997E-07
 -1.1180000E-03   -9.7473230E-07
 -1.1175000E-03   -1.6163279E-06
 -1.1170000E-03   -2.2162944E-06
 -1.1165000E-03   -2.7115827E-06
 -1.1160000E-03   -3.0390952E-06
 -1.1155000E-03   -3.1417608E-06
 -1.1150000E-03   -2.9749629E-06
 -1.1145000E-03   -2.5127363E-06
 -1.1140000E-03   -1.7530939E-06
 -1.1135000E-03   -7.2183053E-07
 -1.1130000E-03    5.2579270E-07
 -1.1125000E-03    1.9059570E-06
 -1.1120000E-03    3.3100798E-06
 -1.1115000E-03    4.6115401E-06
 -1.1110000E-03    5.6751019E-06
 -1.1105000E-03    6.3685079E-06
 -1.1100000E-03    6.5754289E-06
 -1.1094999E-03    6.2087061E-06
 -1.1089999E-03    5.2226533E-06
 -1.1084999E-03    3.6231011E-06
 -1.1080001E-03    1.4739222E-06
 -1.1075001E-03   -1.1010792E-06
 -1.1070000E-03   -3.9217002E-06
 -1.1065000E-03   -6.7606866E-06
 -1.1060000E-03   -9.3587596E-06
 -1.1055000E-03   -1.1444637E-05
 -1.1050000E-03   -1.2758779E-05
 -1.1045000E-03   -1.3079091E-05
 -1.1040000E-03   -1.2246372E-05
 -1.1035000E-03   -1.0187084E-05
 -1.1030000E-03   -6.9309463E-06
 -1.1025000E-03   -2.6210471E-06
 -1.1020000E-03    2.4853928E-06
 -1.1015000E-03    8.0268028E-06
 -1.1010000E-03    1.3557943E-05
 -1.1005000E-03    1.8580815E-05
 -1.1000000E-03    2.2584123E-05
 -1.0995000E-03    2.5088542E-05
 -1.0990000E-03    2.5694235E-05
 -1.0985000E-03    2.4126432E-05
 -1.0980000E-03    2.0274547E-05
 -1.0975000E-03    1.4220493E-05
 -1.0970000E-03    6.2523313E-06
 -1.0965000E-03   -3.1396219E-06
 -1.0960000E-03   -1.3285739E-05
 -1.0955000E-03   -2.3378991E-05
 -1.0950000E-03   -3.2533895E-05
 -1.0945000E-03   -3.9858769E-05
 -1.0939999E-03   -4.4535962E-05
 -1.0934999E-03   -4.5903314E-05
 -1.0930001E-03   -4.3529424E-05
 -1.0925001E-03   -3.7275011E-05
 -1.0920000E-03   -2.7333343E-05
 -1.0915000E-03   -1.4243773E-05
 -1.0910000E-03    1.1253828E-06
 -1.0905000E-03    1.7626027E-05
 -1.0900000E-03    3.3909957E-05
 -1.0895000E-03    4.8534399E-05
 -1.0890000E-03    6.0085949E-05
 -1.0885000E-03    6.7312896E-05
 -1.0880000E-03    6.9254267E-05
 -1.0875000E-03    6.5353066E-05
 -1.0870000E-03    5.5541561E-05
 -1.0865000E-03    4.0288051E-05
 -1.0860000E-03    2.0597161E-05
 -1.0855000E-03   -2.0405139E-06
 -1.0850000E-03   -2.5749090E-05
 -1.0845000E-03   -4.8413276E-05
 -1.0840000E-03   -6.7859459E-05
 -1.0835000E-03   -8.2057784E-05
 -1.0830000E-03   -8.9327579E-05
 -1.0825000E-03   -8.8526664E-05
 -1.0820000E-03   -7.9204896E-05
 -1.0815000E-03   -6.1703890E-05
 -1.0810000E-03   -3.7188427E-05
 -1.0805000E-03   -7.6006372E-06
 -1.0800000E-03    2.4465642E-05
 -1.0795000E-03    5.5965127E-05
 -1.0790000E-03    8.3663152E-05
 -1.0784999E-03    1.0443947E-04
 -1.0779999E-03    1.1560792E-04
 -1.0775001E-03    1.1522214E-04
 -1.0770001E-03    1.0233608E-04
 -1.0765000E-03    7.7189638E-05
 -1.0760000E-03    4.1294436E-05
 -1.0755000E-03   -2.5980412E-06
 -1.0750000E-03   -5.0653773E-05
 -1.0745000E-03   -9.8235359E-05
 -1.0740000E-03   -1.4028717E-04
 -1.0735000E-03   -1.7179895E-04
 -1.0730000E-03   -1.8831009E-04
 -1.0725000E-03   -1.8640916E-04
 -1.0720000E-03   -1.6418000E-04
 -1.0715000E-03   -1.2154542E-04
 -1.0710000E-03   -6.0465794E-05
 -1.0705000E-03    1.5040932E-05
 -1.0700000E-03    9.9076977E-05
 -1.0695000E-03    1.8424216E-04
 -1.0690000E-03    2.6219425E-04
 -1.0685000E-03    3.2435611E-04
 -1.0680000E-03    3.6271676E-04
 -1.0675000E-03    3.7065853E-04
 -1.0670000E-03    3.4373524E-04
 -1.0665000E-03    2.8032245E-04
 -1.0660000E-03    1.8206656E-04
 -1.0655000E-03    5.4071486E-05
 -1.0650000E-03   -9.5219555E-05
 -1.0645000E-03   -2.5446489E-04
 -1.0640000E-03   -4.1017731E-04
 -1.0634999E-03   -5.4774812E-04
 -1.0629999E-03   -6.5267342E-04
 -1.0625001E-03   -7.1188767E-04
 -1.0620001E-03   -7.1509334E-04
 -1.0615001E-03   -6.5596297E-04
 -1.0610000E-03   -5.3309475E-04
 -1.0605000E-03   -3.5061102E-04
 -1.0600000E-03   -1.1831554E-04
 -1.0595000E-03    1.4864470E-04
 -1.0590000E-03    4.3062429E-04
 -1.0585000E-03    7.0479972E-04
 -1.0580000E-03    9.4688707E-04
 -1.0575000E-03    1.1331376E-03
 -1.0570000E-03    1.2424570E-03
 -1.0565000E-03    1.2584710E-03
 -1.0560000E-03    1.1713509E-03
 -1.0555000E-03    9.7921793E-04
 -1.0550000E-03    6.8897026E-04
 -1.0545000E-03    3.1641652E-04
 -1.0540000E-03   -1.1435238E-04
 -1.0535000E-03   -5.7235442E-04
 -1.0530000E-03   -1.0218080E-03
 -1.0525000E-03   -1.4247947E-03
 -1.0520000E-03   -1.7443044E-03
 -1.0515000E-03   -1.9474296E-03
 -1.0510000E-03   -2.0084418E-03
 -1.0505000E-03   -1.9114804E-03
 -1.0500000E-03   -1.6525956E-03
 -1.0495000E-03   -1.2409261E-03
 -1.0490000E-03   -6.9885544E-04
 -1.0485000E-03   -6.1062114E-05
 -1.0479999E-03    6.2752399E-04
 -1.0474999E-03    1.3147580E-03
 -1.0470001E-03    1.9451152E-03
 -1.0465001E-03    2.4640497E-03
 -1.0460000E-03    2.8225430E-03
 -1.0455000E-03    2.9814702E-03
 -1.0450000E-03    2.9154071E-03
 -1.0445000E-03    2.6155282E-03
 -1.0440000E-03    2.0913004E-03
 -1.0435000E-03    1.3707655E-03
 -1.0430000E-03    4.9930927E-04
 -1.0425000E-03   -4.6305970E-04
 -1.0420000E-03   -1.4457741E-03
 -1.0415000E-03   -2.3728476E-03
 -1.0410000E-03   -3.1687170E-03
 -1.0405000E-03   -3.7643425E-03
 -1.0400000E-03   -4.1030678E-03
 -1.0395000E-03   -4.1457568E-03
 -1.0390000E-03   -3.8747385E-03
 -1.0385000E-03   -3.2961958E-03
 -1.0380000E-03   -2.4407236E-03
 -1.0375000E-03   -1.3619399E-03
 -1.0370000E-03   -1.3318037E-04
 -1.0365000E-03    1.1575299E-03
 -1.0360000E-03    2.4138824E-03
 -1.0355000E-03    3.5385997E-03
 -1.0350000E-03    4.4410946E-03
 -1.0345000E-03    5.0448626E-03
 -1.0340000E-03    5.2939975E-03
 -1.0335000E-03    5.1582647E-03
 -1.0329999E-03    4.6362868E-03
 -1.0324999E-03    3.7565059E-03
 -1.0319999E-03    2.5757935E-03
 -1.0315001E-03    1.1757459E-03
 -1.0310001E-03   -3.4309956E-04
 -1.0305000E-03   -1.8687078E-03
 -1.0300000E-03   -3.2860925E-03
 -1.0295000E-03   -4.4862954E-03
 -1.0290000E-03   -5.3750793E-03
 -1.0285000E-03   -5.8806259E-03
 -1.0280000E-03   -5.9595858E-03
 -1.0275000E-03   -5.6009660E-03
 -1.0270000E-03   -4.8274817E-03
 -1.0265000E-03   -3.6942305E-03
 -1.0260000E-03   -2.2847431E-03
 -1.0255000E-03   -7.0469076E-04
 -1.0250000E-03    9.2627091E-04
 -1.0245000E-03    2.4838871E-03
 -1.0240000E-03    3.8491623E-03
 -1.0235000E-03    4.9178945E-03
 -1.0230000E-03    5.6090970E-03
 -1.0225000E-03    5.8716033E-03
 -1.0220000E-03    5.6882915E-03
 -1.0215000E-03    5.0775572E-03
 -1.0210000E-03    4.0918868E-03
 -1.0205000E-03    2.8136205E-03
 -1.0200000E-03    1.3482331E-03
 -1.0195000E-03   -1.8432770E-04
 -1.0190000E-03   -1.6595407E-03
 -1.0185000E-03   -2.9586323E-03
 -1.0180000E-03   -3.9784573E-03
 -1.0174999E-03   -4.6401094E-03
 -1.0169999E-03   -4.8955237E-03
 -1.0165001E-03   -4.7315066E-03
 -1.0160001E-03   -4.1708252E-03
 -1.0155000E-03   -3.2702484E-03
 -1.0150000E-03   -2.1156725E-03
 -1.0145000E-03   -8.1472675E-04
 -1.0140000E-03    5.1253749E-04
 -1.0135000E-03    1.7441004E-03
 -1.0130000E-03    2.7666867E-03
 -1.0125000E-03    3.4858263E-03
 -1.0120000E-03    3.8343889E-03
 -1.0115000E-03    3.7788500E-03
 -1.0110000E-03    3.3227061E-03
 -1.0105000E-03    2.5067162E-03
 -1.0100000E-03    1.4058853E-03
 -1.0095000E-03    1.2340215E-04
 -1.0090000E-03   -1.2180136E-03
 -1.0085000E-03   -2.4866599E-03
 -1.0080000E-03   -3.5534357E-03
 -1.0075000E-03   -4.3034949E-03
 -1.0070000E-03   -4.6469737E-03
 -1.0065000E-03   -4.5278650E-03
 -1.0060000E-03   -3.9302278E-03
 -1.0055000E-03   -2.8811460E-03
 -1.0050000E-03   -1.4500832E-03
 -1.0045000E-03    2.5540867E-04
 -1.0040000E-03    2.0973848E-03
 -1.0035000E-03    3.9180722E-03
 -1.0030000E-03    5.5525214E-03
 -1.0025000E-03    6.8423641E-03
 -1.0019999E-03    7.6495898E-03
 -1.0014999E-03    7.8692082E-03
 -1.0010001E-03    7.4397228E-03
 -1.0005001E-03    6.3504875E-03
 -1.0000000E-03    4.6452279E-03
 -9.9950004E-04    2.4212985E-03
 -9.9900004E-04   -1.7543818E-04
 -9.9850004E-04   -2.9598742E-03
 -9.9800003E-04   -5.7204985E-03
 -9.9750003E-04   -8.2349526E-03
 -9.9700002E-04   -1.0287190E-02
 -9.9650002E-04   -1.1684966E-02
 -9.9600002E-04   -1.2276307E-02
 -9.9550001E-04   -1.1963631E-02
 -9.9500001E-04   -1.0714334E-02
 -9.9450001E-04   -8.5668499E-03
 -9.9400000E-04   -5.6315297E-03
 -9.9350000E-04   -2.0860175E-03
 -9.9299999E-04    1.8347625E-03
 -9.9249999E-04    5.8535133E-03
 -9.9199999E-04    9.6694576E-03
 -9.9149998E-04    1.2979984E-02
 -9.9099998E-04    1.5503541E-02
 -9.9049998E-04    1.7002109E-02
 -9.8999997E-04    1.7301578E-02
 -9.8949997E-04    1.6308334E-02
 -9.8899996E-04    1.4020699E-02
 -9.8849996E-04    1.0534074E-02
 -9.8799996E-04    6.0390895E-03
 -9.8749995E-04    8.1256317E-04
 -9.8699995E-04   -4.7984244E-03
 -9.8649994E-04   -1.0398507E-02
 -9.8600006E-04   -1.5570743E-02
 -9.8550005E-04   -1.9906295E-02
 -9.8500005E-04   -2.3035076E-02
 -9.8450005E-04   -2.4655094E-02
 -9.8400004E-04   -2.4558315E-02
 -9.8350004E-04   -2.2650925E-02
 -9.8300003E-04   -1.8966233E-02
 -9.8250003E-04   -1.3668895E-02
 -9.8200003E-04   -7.0497324E-03
 -9.8150002E-04    4.8895669E-04
 -9.8100002E-04    8.4569650E-03
 -9.8050002E-04    1.6307311E-02
 -9.8000001E-04    2.3473030E-02
 -9.7950001E-04    2.9407186E-02
 -9.7900000E-04    3.3623297E-02
 -9.7850000E-04    3.5733260E-02
 -9.7800000E-04    3.5479866E-02
 -9.7749999E-04    3.2761250E-02
 -9.7699999E-04    2.7645202E-02
 -9.7649998E-04    2.0371770E-02
 -9.7599998E-04    1.1343514E-02
 -9.7549998E-04    1.1036251E-03
 -9.7499997E-04   -9.6970182E-03
 -9.7450003E-04   -2.0341860E-02
 -9.7400002E-04   -3.0097021E-02
 -9.7350002E-04   -3.8262699E-02
 -9.7300002E-04   -4.4223960E-02
 -9.7250001E-04   -4.7497176E-02
 -9.7200001E-04   -4.7768604E-02
 -9.7150001E-04   -4.4921927E-02
 -9.7100000E-04   -3.9052494E-02
 -9.7050000E-04   -3.0466730E-02
 -9.6999999E-04   -1.9666346E-02
 -9.6949999E-04   -7.3180636E-03
 -9.6899999E-04    5.7893121E-03
 -9.6849998E-04    1.8797675E-02
 -9.6799998E-04    3.0838614E-02
 -9.6749997E-04    4.1094452E-02
 -9.6700003E-04    4.8856903E-02
 -9.6650003E-04    5.3578958E-02
 -9.6600002E-04    5.4916129E-02
 -9.6550002E-04    5.2753720E-02
 -9.6500001E-04    4.7218017E-02
 -9.6450001E-04    3.8670216E-02
 -9.6400001E-04    2.7683336E-02
 -9.6350000E-04    1.5003658E-02
 -9.6300000E-04    1.4992458E-03
 -9.6249999E-04   -1.1900640E-02
 -9.6199999E-04   -2.4270926E-02
 -9.6149999E-04   -3.4756053E-02
 -9.6099998E-04   -4.2630389E-02
 -9.6049998E-04   -4.7349248E-02
 -9.5999998E-04   -4.8586681E-02
 -9.5949997E-04   -4.6257176E-02
 -9.5900003E-04   -4.0519670E-02
 -9.5850002E-04   -3.1763636E-02
 -9.5800002E-04   -2.0578258E-02
 -9.5750001E-04   -7.7071497E-03
 -9.5700001E-04    6.0078604E-03
 -9.5650001E-04    1.9689608E-02
 -9.5600000E-04    3.2490242E-02
 -9.5550000E-04    4.3652724E-02
 -9.5500000E-04    5.2564453E-02
 -9.5449999E-04    5.8799043E-02
 -9.5399999E-04    6.2143113E-02
 -9.5349998E-04    6.2606215E-02
 -9.5299998E-04    6.0413413E-02
 -9.5249998E-04    5.5981226E-02
 -9.5199997E-04    4.9879264E-02
 -9.5150003E-04    4.2780600E-02
 -9.5100002E-04    3.5405189E-02
 -9.5050002E-04    2.8460825E-02
 -9.5000002E-04    2.2586506E-02
 -9.4950001E-04    1.8302664E-02
 -9.4900001E-04    1.5972238E-02
 -9.4850000E-04    1.5775533E-02
 -9.4800000E-04    1.7700728E-02
 -9.4750000E-04    2.1550594E-02
 -9.4699999E-04    2.6964584E-02
 -9.4649999E-04    3.3454299E-02
 -9.4599999E-04    4.0449169E-02
 -9.4549998E-04    4.7348473E-02
 -9.4499998E-04    5.3575173E-02
 -9.4449997E-04    5.8627155E-02
 -9.4400003E-04    6.2121458E-02
 -9.4350002E-04    6.3827902E-02
 -9.4300002E-04    6.3689247E-02
 -9.4250002E-04    6.1826270E-02
 -9.4200001E-04    5.8527377E-02
 -9.4150001E-04    5.4223493E-02
 -9.4100001E-04    4.9450532E-02
 -9.4050000E-04    4.4802357E-02
 -9.4000000E-04    4.0878300E-02
 -9.3949999E-04    3.8229544E-02
 -9.3899999E-04    3.7308857E-02
 -9.3849999E-04    3.8427982E-02
 -9.3799998E-04    4.1726220E-02
 -9.3749998E-04    4.7153126E-02
 -9.3699998E-04    5.4466810E-02
 -9.3649997E-04    6.3248381E-02
 -9.3600003E-04    7.2931558E-02
 -9.3550002E-04    8.2845390E-02
 -9.3500002E-04    9.2266880E-02
 -9.3450001E-04    0.1004794    
 -9.3400001E-04    0.1068327    
 -9.3350001E-04    0.1107987    
 -9.3300000E-04    0.1120207    
 -9.3250000E-04    0.1103487    
 -9.3200000E-04    0.1058613    
 -9.3149999E-04    9.8868705E-02
 -9.3099999E-04    8.9898869E-02
 -9.3049998E-04    7.9665169E-02
 -9.2999998E-04    6.9018908E-02
 -9.2949998E-04    5.8889125E-02
 -9.2899997E-04    5.0214123E-02
 -9.2850003E-04    4.3869581E-02
 -9.2800002E-04    4.0598541E-02
 -9.2750002E-04    4.0948704E-02
 -9.2700002E-04    4.5221843E-02
 -9.2650001E-04    5.3439688E-02
 -9.2600001E-04    6.5329283E-02
 -9.2550000E-04    8.0329753E-02
 -9.2500000E-04    9.7620584E-02
 -9.2450000E-04    0.1161703    
 -9.2399999E-04    0.1348024    
 -9.2349999E-04    0.1522753    
 -9.2299999E-04    0.1673690    
 -9.2249998E-04    0.1789749    
 -9.2199998E-04    0.1861804    
 -9.2149997E-04    0.1883425    
 -9.2100003E-04    0.1851452    
 -9.2050002E-04    0.1766352    
 -9.2000002E-04    0.1632326    
 -9.1950002E-04    0.1457156    
 -9.1900001E-04    0.1251783    
 -9.1850001E-04    0.1029648    
 -9.1800001E-04    8.0582820E-02
 -9.1750000E-04    5.9602514E-02
 -9.1700000E-04    4.1547775E-02
 -9.1649999E-04    2.7787121E-02
 -9.1599999E-04    1.9432444E-02
 -9.1549999E-04    1.7253142E-02
 -9.1499998E-04    2.1612374E-02
 -9.1449998E-04    3.2430813E-02
 -9.1399997E-04    4.9181327E-02
 -9.1349997E-04    7.0915900E-02
 -9.1300003E-04    9.6323699E-02
 -9.1250002E-04    0.1238169    
 -9.1200002E-04    0.1516385    
 -9.1150001E-04    0.1779853    
 -9.1100001E-04    0.2011361    
 -9.1050001E-04    0.2195776    
 -9.1000000E-04    0.2321162    
 -9.0950000E-04    0.2379693    
 -9.0899999E-04    0.2368277    
 -9.0849999E-04    0.2288834    
 -9.0799999E-04    0.2148216    
 -9.0749998E-04    0.1957751    
 -9.0699998E-04    0.1732449    
 -9.0649998E-04    0.1489923    
 -9.0599997E-04    0.1249104    
 -9.0550003E-04    0.1028831    
 -9.0500002E-04    8.4645137E-02
 -9.0450002E-04    7.1649864E-02
 -9.0400001E-04    6.4958975E-02
 -9.0350001E-04    6.5159962E-02
 -9.0300001E-04    7.2319552E-02
 -9.0250000E-04    8.5976467E-02
 -9.0200000E-04    0.1051747    
 -9.0150000E-04    0.1285347    
 -9.0099999E-04    0.1543580    
 -9.0049999E-04    0.1807567    
 -8.9999998E-04    0.2057978    
 -8.9949998E-04    0.2276522    
 -8.9899998E-04    0.2447356    
 -8.9849997E-04    0.2558313    
 -8.9800003E-04    0.2601840    
 -8.9750002E-04    0.2575585    
 -8.9700002E-04    0.2482577    
 -8.9650002E-04    0.2330989    
 -8.9600001E-04    0.2133500    
 -8.9550001E-04    0.1906302    
 -8.9500000E-04    0.1667848    
 -8.9450000E-04    0.1437409    
 -8.9400000E-04    0.1233589    
 -8.9349999E-04    0.1072885    
 -8.9299999E-04    9.6842311E-02
 -8.9249999E-04    9.2896491E-02
 -8.9199998E-04    9.5825598E-02
 -8.9149998E-04    0.1054772    
 -8.9099997E-04    0.1211874    
 -8.9050003E-04    0.1418365    
 -8.9000002E-04    0.1659387    
 -8.8950002E-04    0.1917605    
 -8.8900002E-04    0.2174563    
 -8.8850001E-04    0.2412112    
 -8.8800001E-04    0.2613805    
 -8.8750001E-04    0.2766137    
 -8.8700000E-04    0.2859545    
 -8.8650000E-04    0.2889089    
 -8.8599999E-04    0.2854774    
 -8.8549999E-04    0.2761484    
 -8.8499999E-04    0.2618543    
 -8.8449998E-04    0.2438951    
 -8.8399998E-04    0.2238350    
 -8.8349998E-04    0.2033807    
 -8.8299997E-04    0.1842516    
 -8.8250003E-04    0.1680513    
 -8.8200002E-04    0.1561503    
 -8.8150002E-04    0.1495884    
 -8.8100001E-04    0.1490041    
 -8.8050001E-04    0.1545948    
 -8.8000001E-04    0.1661101    
 -8.7950000E-04    0.1828788    
 -8.7900000E-04    0.2038648    
 -8.7850000E-04    0.2277489    
 -8.7799999E-04    0.2530282    
 -8.7749999E-04    0.2781258    
 -8.7699998E-04    0.3015038    
 -8.7649998E-04    0.3217690    
 -8.7599998E-04    0.3377661    
 -8.7549997E-04    0.3486517    
 -8.7500003E-04    0.3539435    
 -8.7450002E-04    0.3535440    
 -8.7400002E-04    0.3477363    
 -8.7350002E-04    0.3371540    
 -8.7300001E-04    0.3227285    
 -8.7250001E-04    0.3056172    
 -8.7200000E-04    0.2871190    
 -8.7150000E-04    0.2685825    
 -8.7100000E-04    0.2513137    
 -8.7049999E-04    0.2364901    
 -8.6999999E-04    0.2250842    
 -8.6949999E-04    0.2178051    
 -8.6899998E-04    0.2150580    
 -8.6849998E-04    0.2169259    
 -8.6799997E-04    0.2231736    
 -8.6750003E-04    0.2332737    
 -8.6700002E-04    0.2464519    
 -8.6650002E-04    0.2617491    
 -8.6600002E-04    0.2780952    
 -8.6550001E-04    0.2943904    
 -8.6500001E-04    0.3095878    
 -8.6450001E-04    0.3227716    
 -8.6400000E-04    0.3332264    
 -8.6350000E-04    0.3404905    
 -8.6299999E-04    0.3443920    
 -8.6249999E-04    0.3450623    
 -8.6199999E-04    0.3429264    
 -8.6149998E-04    0.3386708    
 -8.6099998E-04    0.3331893    
 -8.6049997E-04    0.3275116    
 -8.5999997E-04    0.3227175    
 -8.5950003E-04    0.3198457    
 -8.5900002E-04    0.3198007    
 -8.5850002E-04    0.3232684    
 -8.5800001E-04    0.3306449    
 -8.5750001E-04    0.3419867    
 -8.5700001E-04    0.3569867    
 -8.5650000E-04    0.3749794    
 -8.5600000E-04    0.3949769    
 -8.5549999E-04    0.4157339    
 -8.5499999E-04    0.4358392    
 -8.5449999E-04    0.4538254    
 -8.5399998E-04    0.4682916    
 -8.5349998E-04    0.4780269    
 -8.5299998E-04    0.4821261    
 -8.5249997E-04    0.4800870    
 -8.5200003E-04    0.4718791    
 -8.5150002E-04    0.4579771    
 -8.5100002E-04    0.4393550    
 -8.5050002E-04    0.4174362    
 -8.5000001E-04    0.3940046    
 -8.4950001E-04    0.3710804    
 -8.4900000E-04    0.3507676    
 -8.4850000E-04    0.3350885    
 -8.4800000E-04    0.3258141    
 -8.4749999E-04    0.3243074    
 -8.4699999E-04    0.3313922    
 -8.4649998E-04    0.3472601    
 -8.4599998E-04    0.3714253    
 -8.4549998E-04    0.4027327    
 -8.4499997E-04    0.4394224    
 -8.4450003E-04    0.4792455    
 -8.4400002E-04    0.5196261    
 -8.4350002E-04    0.5578552    
 -8.4300002E-04    0.5913036    
 -8.4250001E-04    0.6176355    
 -8.4200001E-04    0.6350052    
 -8.4150000E-04    0.6422194    
 -8.4100000E-04    0.6388517    
 -8.4050000E-04    0.6252966    
 -8.3999999E-04    0.6027576    
 -8.3949999E-04    0.5731692    
 -8.3899999E-04    0.5390558    
 -8.3849998E-04    0.5033404    
 -8.3799998E-04    0.4691154    
 -8.3749997E-04    0.4393965    
 -8.3700003E-04    0.4168779    
 -8.3650002E-04    0.4037110    
 -8.3600002E-04    0.4013249    
 -8.3550002E-04    0.4103047    
 -8.3500001E-04    0.4303378    
 -8.3450001E-04    0.4602354    
 -8.3400001E-04    0.4980261    
 -8.3350000E-04    0.5411157    
 -8.3300000E-04    0.5864990    
 -8.3249999E-04    0.6310074    
 -8.3199999E-04    0.6715699    
 -8.3149999E-04    0.7054658    
 -8.3099998E-04    0.7305486    
 -8.3049998E-04    0.7454203    
 -8.2999998E-04    0.7495419    
 -8.2949997E-04    0.7432715    
 -8.2900003E-04    0.7278251    
 -8.2850002E-04    0.7051665    
 -8.2800002E-04    0.6778330    
 -8.2750001E-04    0.6487147    
 -8.2700001E-04    0.6208062    
 -8.2650001E-04    0.5969509    
 -8.2600000E-04    0.5796030    
 -8.2550000E-04    0.5706246    
 -8.2500000E-04    0.5711367    
 -8.2449999E-04    0.5814366    
 -8.2399999E-04    0.6009863    
 -8.2349998E-04    0.6284738    
 -8.2299998E-04    0.6619393    
 -8.2249998E-04    0.6989549    
 -8.2199997E-04    0.7368413    
 -8.2150003E-04    0.7729007    
 -8.2100002E-04    0.8046477    
 -8.2050002E-04    0.8300150    
 -8.2000002E-04    0.8475199    
 -8.1950001E-04    0.8563748    
 -8.1900001E-04    0.8565366    
 -8.1850000E-04    0.8486905    
 -8.1800000E-04    0.8341712    
 -8.1750000E-04    0.8148330    
 -8.1699999E-04    0.7928786    
 -8.1649999E-04    0.7706639    
 -8.1599999E-04    0.7504984    
 -8.1549998E-04    0.7344557    
 -8.1499998E-04    0.7242124    
 -8.1449997E-04    0.7209274    
 -8.1400003E-04    0.7251688    
 -8.1350002E-04    0.7368959    
 -8.1300002E-04    0.7554909    
 -8.1250002E-04    0.7798383    
 -8.1200001E-04    0.8084403    
 -8.1150001E-04    0.8395579    
 -8.1100001E-04    0.8713627    
 -8.1050000E-04    0.9020863    
 -8.1000000E-04    0.9301544    
 -8.0949999E-04    0.9542968    
 -8.0899999E-04    0.9736225    
 -8.0849999E-04    0.9876605    
 -8.0799998E-04    0.9963630    
 -8.0749998E-04     1.000075    
 -8.0699997E-04    0.9994771    
 -8.0649997E-04    0.9955073    
 -8.0600003E-04    0.9892724    
 -8.0550002E-04    0.9819568    
 -8.0500002E-04    0.9747363    
 -8.0450001E-04    0.9687033    
 -8.0400001E-04    0.9648074    
 -8.0350001E-04    0.9638144    
 -8.0300000E-04    0.9662818    
 -8.0250000E-04    0.9725500    
 -8.0200000E-04    0.9827464    
 -8.0149999E-04    0.9967981    
 -8.0099999E-04     1.014450    
 -8.0049998E-04     1.035288    
 -7.9999998E-04     1.058755    
 -7.9949998E-04     1.084177    
 -7.9899997E-04     1.110787    
 -7.9850003E-04     1.137743    
 -7.9800002E-04     1.164160    
 -7.9750002E-04     1.189144    
 -7.9700002E-04     1.211832    
 -7.9650001E-04     1.231441    
 -7.9600001E-04     1.247321    
 -7.9550000E-04     1.259011    
 -7.9500000E-04     1.266296    
 -7.9450000E-04     1.269248    
 -7.9399999E-04     1.268261    
 -7.9349999E-04     1.264062    
 -7.9299998E-04     1.257689    
 -7.9249998E-04     1.250451    
 -7.9199998E-04     1.243851    
 -7.9149997E-04     1.239480    
 -7.9100003E-04     1.238896    
 -7.9050002E-04     1.243481    
 -7.9000002E-04     1.254310    
 -7.8950002E-04     1.272019    
 -7.8900001E-04     1.296707    
 -7.8850001E-04     1.327875    
 -7.8800000E-04     1.364416    
 -7.8750000E-04     1.404650    
 -7.8700000E-04     1.446429    
 -7.8649999E-04     1.487284    
 -7.8599999E-04     1.524618    
 -7.8549999E-04     1.555926    
 -7.8499998E-04     1.579023    
 -7.8449998E-04     1.592269    
 -7.8399997E-04     1.594747    
 -7.8350003E-04     1.586401    
 -7.8300002E-04     1.568100    
 -7.8250002E-04     1.541623    
 -7.8200002E-04     1.509561    
 -7.8150001E-04     1.475138    
 -7.8100001E-04     1.441971    
 -7.8050001E-04     1.413770    
 -7.8000000E-04     1.394024    
 -7.7950000E-04     1.385683    
 -7.7899999E-04     1.390874    
 -7.7849999E-04     1.410682    
 -7.7799999E-04     1.445005    
 -7.7749998E-04     1.492517    
 -7.7699998E-04     1.550736    
 -7.7649998E-04     1.616195    
 -7.7599997E-04     1.684715    
 -7.7550003E-04     1.751741    
 -7.7500002E-04     1.812736    
 -7.7450002E-04     1.863572    
 -7.7400001E-04     1.900913    
 -7.7350001E-04     1.922525    
 -7.7300001E-04     1.927503    
 -7.7250000E-04     1.916386    
 -7.7200000E-04     1.891145    
 -7.7150000E-04     1.855042    
 -7.7099999E-04     1.812371    
 -7.7049999E-04     1.768105    
 -7.6999998E-04     1.727469    
 -7.6949998E-04     1.695489    
 -7.6899998E-04     1.676547    
 -7.6849997E-04     1.673986    
 -7.6800003E-04     1.689805    
 -7.6750002E-04     1.724464    
 -7.6700002E-04     1.776832    
 -7.6650002E-04     1.844262    
 -7.6600001E-04     1.922819    
 -7.6550001E-04     2.007606    
 -7.6500000E-04     2.093193    
 -7.6450000E-04     2.174084    
 -7.6400000E-04     2.245199    
 -7.6349999E-04     2.302315    
 -7.6299999E-04     2.342438    
 -7.6249999E-04     2.364054    
 -7.6199998E-04     2.367267    
 -7.6149998E-04     2.353775    
 -7.6099997E-04     2.326717    
 -7.6050003E-04     2.290391    
 -7.6000002E-04     2.249867    
 -7.5950002E-04     2.210546    
 -7.5900002E-04     2.177688    
 -7.5850001E-04     2.155959    
 -7.5800001E-04     2.149042    
 -7.5750001E-04     2.159338    
 -7.5700000E-04     2.187788    
 -7.5650000E-04     2.233827    
 -7.5599999E-04     2.295473    
 -7.5549999E-04     2.369534    
 -7.5499999E-04     2.451924    
 -7.5449998E-04     2.538039    
 -7.5399998E-04     2.623174    
 -7.5349997E-04     2.702926    
 -7.5299997E-04     2.773561    
 -7.5250003E-04     2.832296    
 -7.5200002E-04     2.877497    
 -7.5150002E-04     2.908751    
 -7.5100001E-04     2.926829    
 -7.5050001E-04     2.933545    
 -7.5000001E-04     2.931530    
 -7.4950000E-04     2.923936    
 -7.4900000E-04     2.914128    
 -7.4850000E-04     2.905359    
 -7.4799999E-04     2.900496    
 -7.4749999E-04     2.901795    
 -7.4699998E-04     2.910760    
 -7.4649998E-04     2.928080    
 -7.4599998E-04     2.953665    