 -1.2000001E-03    1.0000000E-24
 -1.1995001E-03    1.0000000E-24
 -1.1990000E-03    1.0000000E-24
 -1.1985000E-03    1.0000000E-24
 -1.1980000E-03    1.0000000E-24
 -1.1975000E-03    1.0000000E-24
 -1.1970000E-03    1.0000000E-24
 -1.1965000E-03    1.0000000E-24
 -1.1960000E-03    1.0000001E-24
 -1.1955000E-03    1.0000001E-24
 -1.1950000E-03    1.0000001E-24
 -1.1945000E-03    1.0000001E-24
 -1.1940000E-03    1.0000001E-24
 -1.1935000E-03    1.0000000E-24
 -1.1930000E-03    9.9999785E-25
 -1.1925000E-03    9.9997773E-25
 -1.1920000E-03    9.9983613E-25
 -1.1915000E-03    9.9901542E-25
 -1.1910000E-03    9.9495259E-25
 -1.1905000E-03    9.7729897E-25
 -1.1900000E-03    9.0862616E-25
 -1.1895000E-03    6.6590643E-25
 -1.1890000E-03   -1.2255935E-25
 -1.1885000E-03   -2.4981769E-24
 -1.1880000E-03   -9.1859500E-24
 -1.1875000E-03   -2.6883259E-23
 -1.1870000E-03   -7.1121819E-23
 -1.1865000E-03   -1.7601203E-22
 -1.1860000E-03   -4.1269530E-22
 -1.1854999E-03   -9.2236061E-22
 -1.1849999E-03   -1.9719721E-21
 -1.1845001E-03   -4.0426243E-21
 -1.1840001E-03   -7.9600067E-21
 -1.1835000E-03   -1.5070807E-20
 -1.1830000E-03   -2.7453178E-20
 -1.1825000E-03   -4.8116786E-20
 -1.1820000E-03   -8.1089950E-20
 -1.1815000E-03   -1.3119869E-19
 -1.1810000E-03   -2.0320836E-19
 -1.1805000E-03   -2.9982296E-19
 -1.1800000E-03   -4.1783439E-19
 -1.1795000E-03   -5.4152097E-19
 -1.1790000E-03   -6.3228523E-19
 -1.1785000E-03   -6.1360987E-19
 -1.1780000E-03   -3.5086965E-19
 -1.1775000E-03    3.7341761E-19
 -1.1770000E-03    1.8864427E-18
 -1.1765000E-03    4.6486454E-18
 -1.1760000E-03    9.2643616E-18
 -1.1755000E-03    1.6464625E-17
 -1.1750000E-03    2.7040964E-17
 -1.1745000E-03    4.1702870E-17
 -1.1740000E-03    6.0826912E-17
 -1.1735000E-03    8.4064526E-17
 -1.1730000E-03    1.0978152E-16
 -1.1725000E-03    1.3431850E-16
 -1.1720000E-03    1.5109261E-16
 -1.1715000E-03    1.4960996E-16
 -1.1710000E-03    1.1452743E-16
 -1.1704999E-03    2.4992586E-17
 -1.1699999E-03   -1.4540582E-16
 -1.1695001E-03   -4.2763446E-16
 -1.1690001E-03   -8.5462273E-16
 -1.1685000E-03   -1.4564898E-15
 -1.1680000E-03   -2.2530242E-15
 -1.1675000E-03   -3.2429885E-15
 -1.1670000E-03   -4.3901226E-15
 -1.1665000E-03   -5.6062333E-15
 -1.1660000E-03   -6.7324737E-15
 -1.1655000E-03   -7.5209063E-15
 -1.1650000E-03   -7.6195747E-15
 -1.1645000E-03   -6.5655747E-15
 -1.1640000E-03   -3.7918260E-15
 -1.1635000E-03    1.3458539E-15
 -1.1630000E-03    9.5143891E-15
 -1.1625000E-03    2.1315420E-14
 -1.1620000E-03    3.7159054E-14
 -1.1615000E-03    5.7098322E-14
 -1.1610000E-03    8.0628619E-14
 -1.1605000E-03    1.0646372E-13
 -1.1600000E-03    1.3230907E-13
 -1.1595000E-03    1.5466324E-13
 -1.1590000E-03    1.6868913E-13
 -1.1585000E-03    1.6820604E-13
 -1.1580000E-03    1.4586001E-13
 -1.1575000E-03    9.3531275E-14
 -1.1570000E-03    3.0313867E-15
 -1.1565000E-03   -1.3287392E-13
 -1.1560000E-03   -3.1910740E-13
 -1.1555000E-03   -5.5662159E-13
 -1.1549999E-03   -8.4052356E-13
 -1.1544999E-03   -1.1581329E-12
 -1.1540001E-03   -1.4871899E-12
 -1.1535001E-03   -1.7945003E-12
 -1.1530000E-03   -2.0353591E-12
 -1.1525000E-03   -2.1541321E-12
 -1.1520000E-03   -2.0863743E-12
 -1.1515000E-03   -1.7628165E-12
 -1.1510000E-03   -1.1154489E-12
 -1.1505000E-03   -8.5756889E-14
 -1.1500000E-03    1.3650727E-12
 -1.1495000E-03    3.2444609E-12
 -1.1490000E-03    5.5160867E-12
 -1.1485000E-03    8.0880788E-12
 -1.1480000E-03    1.0803280E-11
 -1.1475000E-03    1.3433409E-11
 -1.1470000E-03    1.5679081E-11
 -1.1465000E-03    1.7177638E-11
 -1.1460000E-03    1.7520450E-11
 -1.1455000E-03    1.6280862E-11
 -1.1450000E-03    1.3053019E-11
 -1.1445000E-03    7.5008081E-12
 -1.1440000E-03   -5.8535642E-13
 -1.1435000E-03   -1.1227656E-11
 -1.1430000E-03   -2.4201207E-11
 -1.1425000E-03   -3.8982428E-11
 -1.1420000E-03   -5.4713272E-11
 -1.1415000E-03   -7.0189694E-11
 -1.1410000E-03   -8.3882540E-11
 -1.1405000E-03   -9.3997629E-11
 -1.1399999E-03   -9.8579700E-11
 -1.1394999E-03   -9.5661278E-11
 -1.1390001E-03   -8.3452981E-11
 -1.1385001E-03   -6.0566628E-11
 -1.1380001E-03   -2.6256537E-11
 -1.1375000E-03    1.9341152E-11
 -1.1370000E-03    7.4996315E-11
 -1.1365000E-03    1.3822848E-10
 -1.1360000E-03    2.0523622E-10
 -1.1355000E-03    2.7094046E-10
 -1.1350000E-03    3.2916536E-10
 -1.1345000E-03    3.7297054E-10
 -1.1340000E-03    3.9513759E-10
 -1.1335000E-03    3.8879672E-10
 -1.1330000E-03    3.4816278E-10
 -1.1325000E-03    2.6933078E-10
 -1.1320000E-03    1.5106372E-10
 -1.1315000E-03   -4.5088195E-12
 -1.1310000E-03   -1.9137147E-10
 -1.1305000E-03   -3.9937537E-10
 -1.1300000E-03   -6.1434496E-10
 -1.1295000E-03   -8.1860485E-10
 -1.1290000E-03   -9.9196118E-10
 -1.1285000E-03   -1.1131343E-09
 -1.1280000E-03   -1.1615887E-09
 -1.1275000E-03   -1.1196595E-09
 -1.1270000E-03   -9.7481512E-10
 -1.1265000E-03   -7.2185813E-10
 -1.1260000E-03   -3.6482445E-10
 -1.1255000E-03    8.1670240E-11
 -1.1250000E-03    5.9188476E-10
 -1.1244999E-03    1.1294179E-09
 -1.1239999E-03    1.6488345E-09
 -1.1235001E-03    2.0985074E-09
 -1.1230001E-03    2.4246198E-09
 -1.1225000E-03    2.5761306E-09
 -1.1220000E-03    2.5103828E-09
 -1.1215000E-03    2.1988869E-09
 -1.1210000E-03    1.6327234E-09
 -1.1205000E-03    8.2692908E-10
 -1.1200000E-03   -1.7677511E-10
 -1.1195000E-03   -1.3095052E-09
 -1.1190000E-03   -2.4774494E-09
 -1.1185000E-03   -3.5670833E-09
 -1.1180000E-03   -4.4533746E-09
 -1.1175000E-03   -5.0106577E-09
 -1.1170000E-03   -5.1255489E-09
 -1.1165000E-03   -4.7109090E-09
 -1.1160000E-03   -3.7195935E-09
 -1.1155000E-03   -2.1565181E-09
 -1.1150000E-03   -8.7466243E-11
 -1.1145000E-03    2.3568636E-09
 -1.1140000E-03    4.9828563E-09
 -1.1135000E-03    7.5429014E-09
 -1.1130000E-03    9.7515551E-09
 -1.1125000E-03    1.1308536E-08
 -1.1120000E-03    1.1927412E-08
 -1.1115000E-03    1.1367969E-08
 -1.1110000E-03    9.4695736E-09
 -1.1105000E-03    6.1822396E-09
 -1.1100000E-03    1.5917512E-09
 -1.1094999E-03   -4.0647929E-09
 -1.1089999E-03   -1.0396312E-08
 -1.1084999E-03   -1.6870489E-08
 -1.1080001E-03   -2.2843293E-08
 -1.1075001E-03   -2.7605200E-08
 -1.1070000E-03   -3.0442202E-08
 -1.1065000E-03   -3.0707962E-08
 -1.1060000E-03   -2.7901637E-08
 -1.1055000E-03   -2.1744386E-08
 -1.1050000E-03   -1.2246569E-08
 -1.1045000E-03    2.4277616E-10
 -1.1040000E-03    1.5012160E-08
 -1.1035000E-03    3.0996336E-08
 -1.1030000E-03    4.6821960E-08
 -1.1025000E-03    6.0891814E-08
 -1.1020000E-03    7.1505497E-08
 -1.1015000E-03    7.7010469E-08
 -1.1010000E-03    7.5973439E-08
 -1.1005000E-03    6.7358251E-08
 -1.1000000E-03    5.0693686E-08
 -1.0995000E-03    2.6213028E-08
 -1.0990000E-03   -5.0529421E-09
 -1.0985000E-03   -4.1245983E-08
 -1.0980000E-03   -7.9726263E-08
 -1.0975000E-03   -1.1720142E-07
 -1.0970000E-03   -1.4993898E-07
 -1.0965000E-03   -1.7405432E-07
 -1.0960000E-03   -1.8585756E-07
 -1.0955000E-03   -1.8223483E-07
 -1.0950000E-03   -1.6103210E-07
 -1.0945000E-03   -1.2140522E-07
 -1.0939999E-03   -6.4097357E-08
 -1.0934999E-03    8.3930161E-09
 -1.0930001E-03    9.1785530E-08
 -1.0925001E-03    1.8015518E-07
 -1.0920000E-03    2.6624352E-07
 -1.0915000E-03    3.4193855E-07
 -1.0910000E-03    3.9890094E-07
 -1.0905000E-03    4.2929778E-07
 -1.0900000E-03    4.2658871E-07
 -1.0895000E-03    3.8629807E-07
 -1.0890000E-03    3.0669847E-07
 -1.0885000E-03    1.8933059E-07
 -1.0880000E-03    3.9289294E-08
 -1.0875000E-03   -1.3477974E-07
 -1.0870000E-03   -3.2100880E-07
 -1.0865000E-03   -5.0497204E-07
 -1.0860000E-03   -6.7066310E-07
 -1.0855000E-03   -8.0173373E-07
 -1.0850000E-03   -8.8290864E-07
 -1.0845000E-03   -9.0146665E-07
 -1.0840000E-03   -8.4865837E-07
 -1.0835000E-03   -7.2092155E-07
 -1.0830000E-03   -5.2075978E-07
 -1.0825000E-03   -2.5716551E-07
 -1.0820000E-03    5.4499619E-08
 -1.0815000E-03    3.9321537E-07
 -1.0810000E-03    7.3359826E-07
 -1.0805000E-03    1.0477224E-06
 -1.0800000E-03    1.3073500E-06
 -1.0795000E-03    1.4864021E-06
 -1.0790000E-03    1.5634658E-06
 -1.0784999E-03    1.5241029E-06
 -1.0779999E-03    1.3627271E-06
 -1.0775001E-03    1.0838314E-06
 -1.0770001E-03    7.0238997E-07
 -1.0765000E-03    2.4332107E-07
 -1.0760000E-03   -2.6002184E-07
 -1.0755000E-03   -7.6827206E-07
 -1.0750000E-03   -1.2392321E-06
 -1.0745000E-03   -1.6315752E-06
 -1.0740000E-03   -1.9087495E-06
 -1.0735000E-03   -2.0427190E-06
 -1.0730000E-03   -2.0171615E-06
 -1.0725000E-03   -1.8297558E-06
 -1.0720000E-03   -1.4932547E-06
 -1.0715000E-03   -1.0351305E-06
 -1.0710000E-03   -4.9570758E-07
 -1.0705000E-03    7.5160159E-08
 -1.0700000E-03    6.2264900E-07
 -1.0695000E-03    1.0924003E-06
 -1.0690000E-03    1.4363391E-06
 -1.0685000E-03    1.6182955E-06
 -1.0680000E-03    1.6188154E-06
 -1.0675000E-03    1.4385620E-06
 -1.0670000E-03    1.0998031E-06
 -1.0665000E-03    6.4562704E-07
 -1.0660000E-03    1.3673258E-07
 -1.0655000E-03   -3.5411671E-07
 -1.0650000E-03   -7.4962355E-07
 -1.0645000E-03   -9.7687098E-07
 -1.0640000E-03   -9.7679538E-07
 -1.0634999E-03   -7.1323859E-07
 -1.0629999E-03   -1.8052525E-07
 -1.0625001E-03    5.9145981E-07
 -1.0620001E-03    1.5355779E-06
 -1.0615001E-03    2.5497623E-06
 -1.0610000E-03    3.5036460E-06
 -1.0605000E-03    4.2493643E-06
 -1.0600000E-03    4.6359282E-06
 -1.0595000E-03    4.5261286E-06
 -1.0590000E-03    3.8145104E-06
 -1.0585000E-03    2.4446579E-06
 -1.0580000E-03    4.2386765E-07
 -1.0575000E-03   -2.1667063E-06
 -1.0570000E-03   -5.1681445E-06
 -1.0565000E-03   -8.3473842E-06
 -1.0560000E-03   -1.1409087E-05
 -1.0555000E-03   -1.4015718E-05
 -1.0550000E-03   -1.5814985E-05
 -1.0545000E-03   -1.6472935E-05
 -1.0540000E-03   -1.5710199E-05
 -1.0535000E-03   -1.3338259E-05
 -1.0530000E-03   -9.2922010E-06
 -1.0525000E-03   -3.6562344E-06
 -1.0520000E-03    3.3214394E-06
 -1.0515000E-03    1.1227311E-05
 -1.0510000E-03    1.9496740E-05
 -1.0505000E-03    2.7444356E-05
 -1.0500000E-03    3.4309971E-05
 -1.0495000E-03    3.9317711E-05
 -1.0490000E-03    4.1744581E-05
 -1.0485000E-03    4.0993342E-05
 -1.0479999E-03    3.6663492E-05
 -1.0474999E-03    2.8613655E-05
 -1.0470001E-03    1.7008579E-05
 -1.0465001E-03    2.3446387E-06
 -1.0460000E-03   -1.4551072E-05
 -1.0455000E-03   -3.2551154E-05
 -1.0450000E-03   -5.0288530E-05
 -1.0445000E-03   -6.6245462E-05
 -1.0440000E-03   -7.8866302E-05
 -1.0435000E-03   -8.6686639E-05
 -1.0430000E-03   -8.8469489E-05
 -1.0425000E-03   -8.3337181E-05
 -1.0420000E-03   -7.0887043E-05
 -1.0415000E-03   -5.1279079E-05
 -1.0410000E-03   -2.5285022E-05
 -1.0405000E-03    5.7095617E-06
 -1.0400000E-03    3.9755076E-05
 -1.0395000E-03    7.4440672E-05
 -1.0390000E-03    1.0704660E-04
 -1.0385000E-03    1.3473787E-04
 -1.0380000E-03    1.5478703E-04
 -1.0375000E-03    1.6480969E-04
 -1.0370000E-03    1.6299434E-04
 -1.0365000E-03    1.4830618E-04
 -1.0360000E-03    1.2064581E-04
 -1.0355000E-03    8.0944956E-05
 -1.0350000E-03    3.1185769E-05
 -1.0345000E-03   -2.5664700E-05
 -1.0340000E-03   -8.5806780E-05
 -1.0335000E-03   -1.4484198E-04
 -1.0329999E-03   -1.9807569E-04
 -1.0324999E-03   -2.4086953E-04
 -1.0319999E-03   -2.6901794E-04
 -1.0315001E-03   -2.7912043E-04
 -1.0310001E-03   -2.6891771E-04
 -1.0305000E-03   -2.3756198E-04
 -1.0300000E-03   -1.8579357E-04
 -1.0295000E-03   -1.1600282E-04
 -1.0290000E-03   -3.2163502E-05
 -1.0285000E-03    6.0365979E-05
 -1.0280000E-03    1.5516682E-04
 -1.0275000E-03    2.4519180E-04
 -1.0270000E-03    3.2327703E-04
 -1.0265000E-03    3.8269747E-04
 -1.0260000E-03    4.1772379E-04
 -1.0255000E-03    4.2413559E-04
 -1.0250000E-03    3.9964655E-04
 -1.0245000E-03    3.4420186E-04
 -1.0240000E-03    2.6011589E-04
 -1.0235000E-03    1.5202984E-04
 -1.0230000E-03    2.6682137E-05
 -1.0225000E-03   -1.0750027E-04
 -1.0220000E-03   -2.4096665E-04
 -1.0215000E-03   -3.6372623E-04
 -1.0210000E-03   -4.6610195E-04
 -1.0205000E-03   -5.3949736E-04
 -1.0200000E-03   -5.7711528E-04
 -1.0195000E-03   -5.7456794E-04
 -1.0190000E-03   -5.3032499E-04
 -1.0185000E-03   -4.4595514E-04
 -1.0180000E-03   -3.2613330E-04
 -1.0174999E-03   -1.7840233E-04
 -1.0169999E-03   -1.2698197E-05
 -1.0165001E-03    1.5933247E-04
 -1.0160001E-03    3.2517573E-04
 -1.0155000E-03    4.7239260E-04
 -1.0150000E-03    5.8958761E-04
 -1.0145000E-03    6.6732650E-04
 -1.0140000E-03    6.9892622E-04
 -1.0135000E-03    6.8105035E-04
 -1.0130000E-03    6.1405415E-04
 -1.0125000E-03    5.0204387E-04
 -1.0120000E-03    3.5263775E-04
 -1.0115000E-03    1.7643950E-04
 -1.0110000E-03   -1.3740585E-05
 -1.0105000E-03   -2.0385870E-04
 -1.0100000E-03   -3.7973002E-04
 -1.0095000E-03   -5.2815286E-04
 -1.0090000E-03   -6.3797244E-04
 -1.0085000E-03   -7.0099370E-04
 -1.0080000E-03   -7.1266590E-04
 -1.0075000E-03   -6.7247509E-04
 -1.0070000E-03   -5.8400759E-04
 -1.0065000E-03   -4.5467299E-04
 -1.0060000E-03   -2.9510414E-04
 -1.0055000E-03   -1.1828046E-04
 -1.0050000E-03    6.1554718E-05
 -1.0045000E-03    2.3009282E-04
 -1.0040000E-03    3.7417264E-04
 -1.0035000E-03    4.8290123E-04
 -1.0030000E-03    5.4858421E-04
 -1.0025000E-03    5.6737964E-04
 -1.0019999E-03    5.3961511E-04
 -1.0014999E-03    4.6973370E-04
 -1.0010001E-03    3.6586792E-04
 -1.0005001E-03    2.3907564E-04
 -1.0000000E-03    1.0230055E-04
 -9.9950004E-04   -3.0851486E-05
 -9.9900004E-04   -1.4741121E-04
 -9.9850004E-04   -2.3630058E-04
 -9.9800003E-04   -2.8942520E-04
 -9.9750003E-04   -3.0249846E-04
 -9.9700002E-04   -2.7551252E-04
 -9.9650002E-04   -2.1280206E-04
 -9.9600002E-04   -1.2268272E-04
 -9.9550001E-04   -1.6685381E-05
 -9.9500001E-04    9.1554277E-05
 -9.9450001E-04    1.8765646E-04
 -9.9400000E-04    2.5798721E-04
 -9.9350000E-04    2.9113900E-04
 -9.9299999E-04    2.7925940E-04
 -9.9249999E-04    2.1909171E-04
 -9.9199999E-04    1.1261425E-04
 -9.9149998E-04   -3.2804845E-05
 -9.9099998E-04   -2.0477718E-04
 -9.9049998E-04   -3.8678304E-04
 -9.8999997E-04   -5.5952440E-04
 -9.8949997E-04   -7.0264231E-04
 -9.8899996E-04   -7.9665874E-04
 -9.8849996E-04   -8.2497543E-04
 -9.8799996E-04   -7.7574776E-04
 -9.8749995E-04   -6.4345117E-04
 -9.8699995E-04   -4.2997714E-04
 -9.8649994E-04   -1.4512689E-04
 -9.8600006E-04    1.9358237E-04
 -9.8550005E-04    5.6182762E-04
 -9.8500005E-04    9.3007390E-04
 -9.8450005E-04    1.2657573E-03
 -9.8400004E-04    1.5359045E-03
 -9.8350004E-04    1.7099907E-03
 -9.8300003E-04    1.7628032E-03
 -9.8250003E-04    1.6770646E-03
 -9.8200003E-04    1.4455759E-03
 -9.8150002E-04    1.0726645E-03
 -9.8100002E-04    5.7477097E-04
 -9.8050002E-04   -1.9934947E-05
 -9.8000001E-04   -6.7293528E-04
 -9.7950001E-04   -1.3376956E-03
 -9.7900000E-04   -1.9628159E-03
 -9.7850000E-04   -2.4957927E-03
 -9.7800000E-04   -2.8871309E-03
 -9.7749999E-04   -3.0944888E-03
 -9.7699999E-04   -3.0865306E-03
 -9.7649998E-04   -2.8461632E-03
 -9.7599998E-04   -2.3728611E-03
 -9.7549998E-04   -1.6838434E-03
 -9.7499997E-04   -8.1395131E-04
 -9.7450003E-04    1.8584587E-04
 -9.7400002E-04    1.2512712E-03
 -9.7350002E-04    2.3087442E-03
 -9.7300002E-04    3.2803239E-03
 -9.7250001E-04    4.0892651E-03
 -9.7200001E-04    4.6657952E-03
 -9.7150001E-04    4.9526887E-03
 -9.7100000E-04    4.9102092E-03
 -9.7050000E-04    4.5200149E-03
 -9.6999999E-04    3.7876910E-03
 -9.6949999E-04    2.7436533E-03
 -9.6899999E-04    1.4422775E-03
 -9.6849998E-04   -4.0756575E-05
 -9.6799998E-04   -1.6127964E-03
 -9.6749997E-04   -3.1699773E-03
 -9.6700003E-04   -4.6040560E-03
 -9.6650003E-04   -5.8098650E-03
 -9.6600002E-04   -6.6928756E-03
 -9.6550002E-04   -7.1763298E-03
 -9.6500001E-04   -7.2074067E-03
 -9.6450001E-04   -6.7619500E-03
 -9.6400001E-04   -5.8473619E-03
 -9.6350000E-04   -4.5033908E-03
 -9.6300000E-04   -2.8006781E-03
 -9.6249999E-04   -8.3709130E-04
 -9.6199999E-04    1.2679753E-03
 -9.6149999E-04    3.3809959E-03
 -9.6099998E-04    5.3629437E-03
 -9.6049998E-04    7.0785871E-03
 -9.5999998E-04    8.4058205E-03
 -9.5949997E-04    9.2443777E-03
 -9.5900003E-04    9.5233070E-03
 -9.5850002E-04    9.2066377E-03
 -9.5800002E-04    8.2968157E-03
 -9.5750001E-04    6.8355827E-03
 -9.5700001E-04    4.9022003E-03
 -9.5650001E-04    2.6090543E-03
 -9.5600000E-04    9.4892981E-05
 -9.5550000E-04   -2.4838888E-03
 -9.5500000E-04   -4.9633565E-03
 -9.5449999E-04   -7.1828687E-03
 -9.5399999E-04   -8.9958906E-03
 -9.5349998E-04   -1.0280046E-02
 -9.5299998E-04   -1.0945695E-02
 -9.5249998E-04   -1.0942423E-02
 -9.5199997E-04   -1.0262923E-02
 -9.5150003E-04   -8.9440290E-03
 -9.5100002E-04   -7.0647057E-03
 -9.5050002E-04   -4.7411607E-03
 -9.5000002E-04   -2.1193421E-03
 -9.4950001E-04    6.3466240E-04
 -9.4900001E-04    3.3456895E-03
 -9.4850000E-04    5.8412575E-03
 -9.4800000E-04    7.9631992E-03
 -9.4750000E-04    9.5783547E-03
 -9.4699999E-04    1.0587558E-02
 -9.4649999E-04    1.0932281E-02
 -9.4599999E-04    1.0598440E-02
 -9.4549998E-04    9.6171005E-03
 -9.4499998E-04    8.0620172E-03
 -9.4449997E-04    6.0441727E-03
 -9.4400003E-04    3.7037260E-03
 -9.4350002E-04    1.1999435E-03
 -9.4300002E-04   -1.3001520E-03
 -9.4250002E-04   -3.6335767E-03
 -9.4200001E-04   -5.6527643E-03
 -9.4150001E-04   -7.2356919E-03
 -9.4100001E-04   -8.2940068E-03
 -9.4050000E-04   -8.7785674E-03
 -9.4000000E-04   -8.6820079E-03
 -9.3949999E-04   -8.0381492E-03
 -9.3899999E-04   -6.9183432E-03
 -9.3849999E-04   -5.4250639E-03
 -9.3799998E-04   -3.6832590E-03
 -9.3749998E-04   -1.8301735E-03
 -9.3699998E-04   -4.4603803E-06
 -9.3649997E-04    1.6645609E-03
 -9.3600003E-04    3.0666338E-03
 -9.3550002E-04    4.1185212E-03
 -9.3500002E-04    4.7695655E-03
 -9.3450001E-04    5.0044302E-03
 -9.3400001E-04    4.8428387E-03
 -9.3350001E-04    4.3363688E-03
 -9.3300000E-04    3.5626148E-03
 -9.3250000E-04    2.6172481E-03
 -9.3200000E-04    1.6046845E-03
 -9.3149999E-04    6.2818633E-04
 -9.3099999E-04   -2.1972082E-04
 -9.3049998E-04   -8.6566649E-04
 -9.2999998E-04   -1.2619348E-03
 -9.2949998E-04   -1.3904570E-03
 -9.2899997E-04   -1.2639287E-03
 -9.2850003E-04   -9.2393690E-04
 -9.2800002E-04   -4.3625091E-04
 -9.2750002E-04    1.1630992E-04
 -9.2700002E-04    6.4279157E-04
 -9.2650001E-04    1.0539879E-03
 -9.2600001E-04    1.2723677E-03
 -9.2550000E-04    1.2410977E-03
 -9.2500000E-04    9.3126786E-04
 -9.2450000E-04    3.4656815E-04
 -9.2399999E-04   -4.7512777E-04
 -9.2349999E-04   -1.4635500E-03
 -9.2299999E-04   -2.5211675E-03
 -9.2249998E-04   -3.5313438E-03
 -9.2199998E-04   -4.3688929E-03
 -9.2149997E-04   -4.9121697E-03
 -9.2100003E-04   -5.0556539E-03
 -9.2050002E-04   -4.7218911E-03
 -9.2000002E-04   -3.8716460E-03
 -9.1950002E-04   -2.5112501E-03
 -9.1900001E-04   -6.9629133E-04
 -9.1850001E-04    1.4689039E-03
 -9.1800001E-04    3.8362220E-03
 -9.1750000E-04    6.2229913E-03
 -9.1700000E-04    8.4249610E-03
 -9.1649999E-04    1.0232146E-02
 -9.1599999E-04    1.1446373E-02
 -9.1549999E-04    1.1899134E-02
 -9.1499998E-04    1.1468285E-02
 -9.1449998E-04    1.0092106E-02
 -9.1399997E-04    7.7794143E-03
 -9.1349997E-04    4.6146447E-03
 -9.1300003E-04    7.5718650E-04
 -9.1250002E-04   -3.5653068E-03
 -9.1200002E-04   -8.0694677E-03
 -9.1150001E-04   -1.2433955E-02
 -9.1100001E-04   -1.6321279E-02
 -9.1050001E-04   -1.9402226E-02
 -9.1000000E-04   -2.1381140E-02
 -9.0950000E-04   -2.2020120E-02
 -9.0899999E-04   -2.1160236E-02
 -9.0849999E-04   -1.8737981E-02
 -9.0799999E-04   -1.4795485E-02
 -9.0749998E-04   -9.4833793E-03
 -9.0699998E-04   -3.0557958E-03
 -9.0649998E-04    4.1425363E-03
 -9.0599997E-04    1.1696454E-02
 -9.0550003E-04    1.9146621E-02
 -9.0500002E-04    2.6020205E-02
 -9.0450002E-04    3.1863883E-02
 -9.0400001E-04    3.6276858E-02
 -9.0350001E-04    3.8941447E-02
 -9.0300001E-04    3.9648950E-02
 -9.0250000E-04    3.8318694E-02
 -9.0200000E-04    3.5008661E-02
 -9.0150000E-04    2.9916594E-02
 -9.0099999E-04    2.3371195E-02
 -9.0049999E-04    1.5813706E-02
 -8.9999998E-04    7.7708610E-03
 -8.9949998E-04   -1.7910174E-04
 -8.9899998E-04   -7.4451701E-03
 -8.9849997E-04   -1.3464401E-02
 -8.9800003E-04   -1.7742030E-02
 -8.9750002E-04   -1.9887961E-02
 -8.9700002E-04   -1.9646939E-02
 -8.9650002E-04   -1.6920090E-02
 -8.9600001E-04   -1.1776058E-02
 -8.9550001E-04   -4.4506849E-03
 -8.9500000E-04    4.6650530E-03
 -8.9450000E-04    1.5048285E-02
 -8.9400000E-04    2.6077298E-02
 -8.9349999E-04    3.7072305E-02
 -8.9299999E-04    4.7341209E-02
 -8.9249999E-04    5.6227282E-02
 -8.9199998E-04    6.3155413E-02
 -8.9149998E-04    6.7673661E-02
 -8.9099997E-04    6.9487005E-02
 -8.9050003E-04    6.8480894E-02
 -8.9000002E-04    6.4732589E-02
 -8.8950002E-04    5.8509335E-02
 -8.8900002E-04    5.0253280E-02
 -8.8850001E-04    4.0553849E-02
 -8.8800001E-04    3.0109409E-02
 -8.8750001E-04    1.9680690E-02
 -8.8700000E-04    1.0039120E-02
 -8.8650000E-04    1.9136560E-03
 -8.8599999E-04   -4.0601781E-03
 -8.8549999E-04   -7.3854006E-03
 -8.8499999E-04   -7.7395537E-03
 -8.8449998E-04   -4.9988888E-03
 -8.8399998E-04    7.5110106E-04
 -8.8349998E-04    9.2197303E-03
 -8.8299997E-04    1.9929618E-02
 -8.8250003E-04    3.2248475E-02
 -8.8200002E-04    4.5432065E-02
 -8.8150002E-04    5.8675371E-02
 -8.8100001E-04    7.1168363E-02
 -8.8050001E-04    8.2152463E-02
 -8.8000001E-04    9.0973578E-02
 -8.7950000E-04    9.7127989E-02
 -8.7900000E-04    0.1002976    
 -8.7850000E-04    0.1003721    
 -8.7799999E-04    9.7456135E-02
 -8.7749999E-04    9.1861300E-02
 -8.7699998E-04    8.4083006E-02
 -8.7649998E-04    7.4764244E-02
 -8.7599998E-04    6.4648695E-02
 -8.7549997E-04    5.4526631E-02
 -8.7500003E-04    4.5177586E-02
 -8.7450002E-04    3.7314028E-02
 -8.7400002E-04    3.1530213E-02
 -8.7350002E-04    2.8259996E-02
 -8.7300001E-04    2.7746717E-02
 -8.7250001E-04    3.0027408E-02
 -8.7200000E-04    3.4932476E-02
 -8.7150000E-04    4.2100821E-02
 -8.7100000E-04    5.1009189E-02
 -8.7049999E-04    6.1013538E-02
 -8.6999999E-04    7.1399137E-02
 -8.6949999E-04    8.1435658E-02
 -8.6899998E-04    9.0432867E-02
 -8.6849998E-04    9.7792849E-02
 -8.6799997E-04    0.1030546    
 -8.6750003E-04    0.1059274    
 -8.6700002E-04    0.1063115    
 -8.6650002E-04    0.1043027    
 -8.6600002E-04    0.1001825    
 -8.6550001E-04    9.4393581E-02
 -8.6500001E-04    8.7502964E-02
 -8.6450001E-04    8.0155954E-02
 -8.6400000E-04    7.3024310E-02
 -8.6350000E-04    6.6752970E-02
 -8.6299999E-04    6.1909605E-02
 -8.6249999E-04    5.8940805E-02
 -8.6199999E-04    5.8138568E-02
 -8.6149998E-04    5.9619460E-02
 -8.6099998E-04    6.3318148E-02
 -8.6049997E-04    6.8995617E-02
 -8.5999997E-04    7.6261304E-02
 -8.5950003E-04    8.4607169E-02
 -8.5900002E-04    9.3450896E-02
 -8.5850002E-04    0.1021845    
 -8.5800001E-04    0.1102242    
 -8.5750001E-04    0.1170583    
 -8.5700001E-04    0.1222873    
 -8.5650000E-04    0.1256553    
 -8.5600000E-04    0.1270682    
 -8.5549999E-04    0.1265985    
 -8.5499999E-04    0.1244761    
 -8.5449999E-04    0.1210654    
 -8.5399998E-04    0.1168315    
 -8.5349998E-04    0.1122983    
 -8.5299998E-04    0.1080014    
 -8.5249997E-04    0.1044405    
 -8.5200003E-04    0.1020354    
 -8.5150002E-04    0.1010884    
 -8.5100002E-04    0.1017577    
 -8.5050002E-04    0.1040428    
 -8.5000001E-04    0.1077839    
 -8.4950001E-04    0.1126754    
 -8.4900000E-04    0.1182923    
 -8.4850000E-04    0.1241267    
 -8.4800000E-04    0.1296330    
 -8.4749999E-04    0.1342763    
 -8.4699999E-04    0.1375812    
 -8.4649998E-04    0.1391760    
 -8.4599998E-04    0.1388294    
 -8.4549998E-04    0.1364758    
 -8.4499997E-04    0.1322272    
 -8.4450003E-04    0.1263705    
 -8.4400002E-04    0.1193501    
 -8.4350002E-04    0.1117369    
 -8.4300002E-04    0.1041857    
 -8.4250001E-04    9.7385354E-02
 -8.4200001E-04    9.2003301E-02
 -8.4150000E-04    8.8631339E-02
 -8.4100000E-04    8.7735035E-02
 -8.4050000E-04    8.9611821E-02
 -8.3999999E-04    9.4360925E-02
 -8.3949999E-04    0.1018679    
 -8.3899999E-04    0.1118050    
 -8.3849998E-04    0.1236486    
 -8.3799998E-04    0.1367113    
 -8.3749997E-04    0.1501879    
 -8.3700003E-04    0.1632122    
 -8.3650002E-04    0.1749189    
 -8.3600002E-04    0.1845083    
 -8.3550002E-04    0.1913081    
 -8.3500001E-04    0.1948268    
 -8.3450001E-04    0.1947962    
 -8.3400001E-04    0.1911985    
 -8.3350000E-04    0.1842761    
 -8.3300000E-04    0.1745221    
 -8.3249999E-04    0.1626534    
 -8.3199999E-04    0.1495661    
 -8.3149999E-04    0.1362766    
 -8.3099998E-04    0.1238530    
 -8.3049998E-04    0.1133399    
 -8.2999998E-04    0.1056831    
 -8.2949997E-04    0.1016587    
 -8.2900003E-04    0.1018129    
 -8.2850002E-04    0.1064148    
 -8.2800002E-04    0.1154290    
 -8.2750001E-04    0.1285076    
 -8.2700001E-04    0.1450045    
 -8.2650001E-04    0.1640112    
 -8.2600000E-04    0.1844114    
 -8.2550000E-04    0.2049531    
 -8.2500000E-04    0.2243309    
 -8.2449999E-04    0.2412755    
 -8.2399999E-04    0.2546431    
 -8.2349998E-04    0.2634984    
 -8.2299998E-04    0.2671857    
 -8.2249998E-04    0.2653827    
 -8.2199997E-04    0.2581320    
 -8.2150003E-04    0.2458486    
 -8.2100002E-04    0.2293015    
 -8.2050002E-04    0.2095700    
 -8.2000002E-04    0.1879774    
 -8.1950001E-04    0.1660060    
 -8.1900001E-04    0.1451989    
 -8.1850000E-04    0.1270551    
 -8.1800000E-04    0.1129261    
 -8.1750000E-04    0.1039197    
 -8.1699999E-04    0.1008194    
 -8.1649999E-04    0.1040252    
 -8.1599999E-04    0.1135200    
 -8.1549998E-04    0.1288648    
 -8.1499998E-04    0.1492243    
 -8.1449997E-04    0.1734197    
 -8.1400003E-04    0.2000083    
 -8.1350002E-04    0.2273811    
 -8.1300002E-04    0.2538745    
 -8.1250002E-04    0.2778866    
 -8.1200001E-04    0.2979903    
 -8.1150001E-04    0.3130341    
 -8.1100001E-04    0.3222242    
 -8.1050000E-04    0.3251803    
 -8.1000000E-04    0.3219625    
 -8.0949999E-04    0.3130648    
 -8.0899999E-04    0.2993778    
 -8.0849999E-04    0.2821216    
 -8.0799998E-04    0.2627549    
 -8.0749998E-04    0.2428661    
 -8.0699997E-04    0.2240557    
 -8.0649997E-04    0.2078184    
 -8.0600003E-04    0.1954338    
 -8.0550002E-04    0.1878742    
 -8.0500002E-04    0.1857371    
 -8.0450001E-04    0.1892067    
 -8.0400001E-04    0.1980477    
 -8.0350001E-04    0.2116316    
 -8.0300000E-04    0.2289930    
 -8.0250000E-04    0.2489117    
 -8.0200000E-04    0.2700129    
 -8.0149999E-04    0.2908785    
 -8.0099999E-04    0.3101591    
 -8.0049998E-04    0.3266788    
 -7.9999998E-04    0.3395236    
 -7.9949998E-04    0.3481067    
 -7.9899997E-04    0.3522054    
 -7.9850003E-04    0.3519680    
 -7.9800002E-04    0.3478884    
 -7.9750002E-04    0.3407538    
 -7.9700002E-04    0.3315679    
 -7.9650001E-04    0.3214582    
 -7.9600001E-04    0.3115748    
 -7.9550000E-04    0.3029895    
 -7.9500000E-04    0.2966044    
 -7.9450000E-04    0.2930772    
 -7.9399999E-04    0.2927704    
 -7.9349999E-04    0.2957276    
 -7.9299998E-04    0.3016787    
 -7.9249998E-04    0.3100743    
 -7.9199998E-04    0.3201442    
 -7.9149997E-04    0.3309765    
 -7.9100003E-04    0.3416074    
 -7.9050002E-04    0.3511166    
 -7.9000002E-04    0.3587169    
 -7.8950002E-04    0.3638312    
 -7.8900001E-04    0.3661503    
 -7.8850001E-04    0.3656649    
 -7.8800000E-04    0.3626704    
 -7.8750000E-04    0.3577431    
 -7.8700000E-04    0.3516895    
 -7.8649999E-04    0.3454748    
 -7.8599999E-04    0.3401346    
 -7.8549999E-04    0.3366799    
 -7.8499998E-04    0.3360019    
 -7.8449998E-04    0.3387864    
 -7.8399997E-04    0.3454441    
 -7.8350003E-04    0.3560648    
 -7.8300002E-04    0.3703978    
 -7.8250002E-04    0.3878621    
 -7.8200002E-04    0.4075845    
 -7.8150001E-04    0.4284633    
 -7.8100001E-04    0.4492530    
 -7.8050001E-04    0.4686616    
 -7.8000000E-04    0.4854541    
 -7.7950000E-04    0.4985531    
 -7.7899999E-04    0.5071275    
 -7.7849999E-04    0.5106641    
 -7.7799999E-04    0.5090141    
 -7.7749998E-04    0.5024119    
 -7.7699998E-04    0.4914650    
 -7.7649998E-04    0.4771148    
 -7.7599997E-04    0.4605716    
 -7.7550003E-04    0.4432294    
 -7.7500002E-04    0.4265665    
 -7.7450002E-04    0.4120395    
 -7.7400001E-04    0.4009788    
 -7.7350001E-04    0.3944926    
 -7.7300001E-04    0.3933879    
 -7.7250000E-04    0.3981123    
 -7.7200000E-04    0.4087213    
 -7.7150000E-04    0.4248737    
 -7.7099999E-04    0.4458541    
 -7.7049999E-04    0.4706213    
 -7.6999998E-04    0.4978782    
 -7.6949998E-04    0.5261592    
 -7.6899998E-04    0.5539281    
 -7.6849997E-04    0.5796797    
 -7.6800003E-04    0.6020395    
 -7.6750002E-04    0.6198534    
 -7.6700002E-04    0.6322626    
 -7.6650002E-04    0.6387602    
 -7.6600001E-04    0.6392227    
 -7.6550001E-04    0.6339191    
 -7.6500000E-04    0.6234933    
 -7.6450000E-04    0.6089239    
 -7.6400000E-04    0.5914621    
 -7.6349999E-04    0.5725526    
 -7.6299999E-04    0.5537421    
 -7.6249999E-04    0.5365803    
 -7.6199998E-04    0.5225210    
 -7.6149998E-04    0.5128273    
 -7.6099997E-04    0.5084884    
 -7.6050003E-04    0.5101520    
 -7.6000002E-04    0.5180784    
 -7.5950002E-04    0.5321178    
 -7.5900002E-04    0.5517139    
 -7.5850001E-04    0.5759342    
 -7.5800001E-04    0.6035256    
 -7.5750001E-04    0.6329927    
 -7.5700000E-04    0.6626945    
 -7.5650000E-04    0.6909533    
 -7.5599999E-04    0.7161704    
 -7.5549999E-04    0.7369385    
 -7.5499999E-04    0.7521463    
 -7.5449998E-04    0.7610642    
 -7.5399998E-04    0.7634073    
 -7.5349997E-04    0.7593686    
 -7.5299997E-04    0.7496179    
 -7.5250003E-04    0.7352678    
 -7.5200002E-04    0.7178045    
 -7.5150002E-04    0.6989895    
 -7.5100001E-04    0.6807364    
 -7.5050001E-04    0.6649718    
 -7.5000001E-04    0.6534906    
 -7.4950000E-04    0.6478150    
 -7.4900000E-04    0.6490697    
 -7.4850000E-04    0.6578829    
 -7.4799999E-04    0.6743217    
 -7.4749999E-04    0.6978698    
 -7.4699998E-04    0.7274484    
 -7.4649998E-04    0.7614834    
 -7.4599998E-04    0.7980130    