 -1.2000001E-03    1.0000000E-24
 -1.1995001E-03    1.0000000E-24
 -1.1990000E-03    1.0000000E-24
 -1.1985000E-03    1.0000000E-24
 -1.1980000E-03    1.0000000E-24
 -1.1975000E-03    1.0000000E-24
 -1.1970000E-03    1.0000000E-24
 -1.1965000E-03    1.0000000E-24
 -1.1960000E-03    1.0000001E-24
 -1.1955000E-03    1.0000001E-24
 -1.1950000E-03    1.0000001E-24
 -1.1945000E-03    1.0000001E-24
 -1.1940000E-03    1.0000001E-24
 -1.1935000E-03    1.0000001E-24
 -1.1930000E-03    1.0000001E-24
 -1.1925000E-03    1.0000001E-24
 -1.1920000E-03    1.0000001E-24
 -1.1915000E-03    1.0000001E-24
 -1.1910000E-03    1.0000001E-24
 -1.1905000E-03    1.0000001E-24
 -1.1900000E-03    1.0000001E-24
 -1.1895000E-03    1.0000001E-24
 -1.1890000E-03    1.0000001E-24
 -1.1885000E-03    1.0000001E-24
 -1.1880000E-03    1.0000002E-24
 -1.1875000E-03    1.0000003E-24
 -1.1870000E-03    1.0000004E-24
 -1.1865000E-03    1.0000005E-24
 -1.1860000E-03    1.0000005E-24
 -1.1854999E-03    1.0000005E-24
 -1.1849999E-03    1.0000006E-24
 -1.1845001E-03    1.0000007E-24
 -1.1840001E-03    1.0000008E-24
 -1.1835000E-03    1.0000008E-24
 -1.1830000E-03    1.0000008E-24
 -1.1825000E-03    1.0000000E-24
 -1.1820000E-03    9.9999677E-25
 -1.1815000E-03    9.9999341E-25
 -1.1810000E-03    9.9999450E-25
 -1.1805000E-03    1.0000003E-24
 -1.1800000E-03    1.0000091E-24
 -1.1795000E-03    1.0000388E-24
 -1.1790000E-03    1.0000844E-24
 -1.1785000E-03    1.0001367E-24
 -1.1780000E-03    1.0002266E-24
 -1.1775000E-03    1.0004445E-24
 -1.1770000E-03    1.0005382E-24
 -1.1765000E-03    1.0006018E-24
 -1.1760000E-03    1.0004244E-24
 -1.1755000E-03    9.9968990E-25
 -1.1750000E-03    9.9641051E-25
 -1.1745000E-03    9.9282996E-25
 -1.1740000E-03    9.8946015E-25
 -1.1735000E-03    9.8566878E-25
 -1.1730000E-03    9.8025108E-25
 -1.1725000E-03    9.7480706E-25
 -1.1720000E-03    9.8080743E-25
 -1.1715000E-03    9.8475982E-25
 -1.1710000E-03    9.8967600E-25
 -1.1704999E-03    9.9507398E-25
 -1.1699999E-03    1.0033632E-24
 -1.1695001E-03    1.0434559E-24
 -1.1690001E-03    1.0700563E-24
 -1.1685000E-03    1.1120764E-24
 -1.1680000E-03    1.0924171E-24
 -1.1675000E-03    1.1190175E-24
 -1.1670000E-03    1.0415338E-24
 -1.1665000E-03    9.9488998E-25
 -1.1660000E-03    8.1524998E-25
 -1.1655000E-03    8.8525626E-25
 -1.1650000E-03    1.6684302E-24
 -1.1645000E-03    2.5132830E-24
 -1.1640000E-03    3.6356931E-24
 -1.1635000E-03    4.7889426E-24
 -1.1630000E-03    6.6206650E-24
 -1.1625000E-03    8.0823107E-24
 -1.1620000E-03    1.0777544E-23
 -1.1615000E-03    1.6310027E-23
 -1.1610000E-03    1.9745414E-23
 -1.1605000E-03    2.1330419E-23
 -1.1600000E-03    1.1072984E-23
 -1.1595000E-03   -4.1803652E-25
 -1.1590000E-03   -1.9279742E-23
 -1.1585000E-03   -3.3453814E-23
 -1.1580000E-03   -5.6509710E-23
 -1.1575000E-03   -7.5124688E-23
 -1.1570000E-03   -9.4726531E-23
 -1.1565000E-03   -1.2222332E-22
 -1.1560000E-03   -1.1419279E-22
 -1.1555000E-03   -8.0503647E-23
 -1.1549999E-03   -7.4446829E-23
 -1.1544999E-03   -7.2337485E-23
 -1.1540001E-03   -1.4720396E-22
 -1.1535001E-03   -2.8523004E-22
 -1.1530000E-03   -5.8707645E-22
 -1.1525000E-03   -9.1458155E-22
 -1.1520000E-03   -1.3239967E-21
 -1.1515000E-03   -1.6505146E-21
 -1.1510000E-03   -1.9533476E-21
 -1.1505000E-03   -2.0114369E-21
 -1.1500000E-03   -1.8168879E-21
 -1.1495000E-03   -8.8021307E-22
 -1.1490000E-03    3.4067989E-22
 -1.1485000E-03    1.9721105E-21
 -1.1480000E-03    2.7193062E-21
 -1.1475000E-03    3.1507033E-21
 -1.1470000E-03    3.5189410E-21
 -1.1465000E-03    2.9871534E-21
 -1.1460000E-03    8.2110964E-22
 -1.1455000E-03   -1.4712542E-21
 -1.1450000E-03   -3.6057195E-21
 -1.1445000E-03   -6.6244194E-21
 -1.1440000E-03   -7.8746488E-21
 -1.1435000E-03   -8.1143235E-21
 -1.1430000E-03   -1.5175242E-20
 -1.1425000E-03   -2.1478245E-20
 -1.1420000E-03   -3.4097215E-20
 -1.1415000E-03   -4.6210904E-20
 -1.1410000E-03   -5.3524460E-20
 -1.1405000E-03   -5.7174750E-20
 -1.1399999E-03   -6.0446088E-20
 -1.1394999E-03   -8.0328408E-20
 -1.1390001E-03   -8.3789215E-20
 -1.1385001E-03   -7.0575871E-20
 -1.1380001E-03   -3.0077547E-20
 -1.1375000E-03    2.4568541E-20
 -1.1370000E-03    9.1341290E-20
 -1.1365000E-03    1.6720903E-19
 -1.1360000E-03    2.1174959E-19
 -1.1355000E-03    2.6639569E-19
 -1.1350000E-03    2.9779898E-19
 -1.1345000E-03    2.6957956E-19
 -1.1340000E-03    1.7567412E-19
 -1.1335000E-03    7.6210651E-20
 -1.1330000E-03   -8.2875523E-20
 -1.1325000E-03   -2.4802496E-19
 -1.1320000E-03   -4.9199772E-19
 -1.1315000E-03   -7.4405491E-19
 -1.1310000E-03   -9.3143649E-19
 -1.1305000E-03   -1.0864804E-18
 -1.1300000E-03   -1.2415243E-18
 -1.1295000E-03   -1.4369903E-18
 -1.1290000E-03   -1.7618070E-18
 -1.1285000E-03   -1.9693996E-18
 -1.1280000E-03   -2.1982137E-18
 -1.1275000E-03   -2.3178879E-18
 -1.1270000E-03   -2.3930974E-18
 -1.1265000E-03   -2.3227873E-18
 -1.1260000E-03   -2.0341972E-18
 -1.1255000E-03   -1.8587888E-18
 -1.1250000E-03   -1.1983143E-18
 -1.1244999E-03   -5.7017735E-19
 -1.1239999E-03    9.0297679E-20
 -1.1235001E-03    1.0903191E-18
 -1.1230001E-03    2.1226778E-18
 -1.1225000E-03    3.8826357E-18
 -1.1220000E-03    4.8685080E-18
 -1.1215000E-03    6.3394456E-18
 -1.1210000E-03    7.2929785E-18
 -1.1205000E-03    7.2763778E-18
 -1.1200000E-03    7.3891275E-18
 -1.1195000E-03    5.7556373E-18
 -1.1190000E-03    3.4753915E-18
 -1.1185000E-03    8.0709294E-19
 -1.1180000E-03   -2.7019873E-18
 -1.1175000E-03   -7.5045771E-18
 -1.1170000E-03   -1.2307165E-17
 -1.1165000E-03   -1.9264252E-17
 -1.1160000E-03   -2.6350690E-17
 -1.1155000E-03   -3.2596346E-17
 -1.1150000E-03   -3.6901732E-17
 -1.1145000E-03   -3.7973337E-17
 -1.1140000E-03   -3.7104682E-17
 -1.1135000E-03   -3.4554454E-17
 -1.1130000E-03   -3.3039033E-17
 -1.1125000E-03   -2.7384380E-17
 -1.1120000E-03   -1.9272059E-17
 -1.1115000E-03   -6.4384343E-18
 -1.1110000E-03    4.4225861E-18
 -1.1105000E-03    1.4313475E-17
 -1.1100000E-03    2.6273979E-17
 -1.1094999E-03    3.6940970E-17
 -1.1089999E-03    4.5538344E-17
 -1.1084999E-03    4.7926868E-17
 -1.1080001E-03    5.0315392E-17
 -1.1075001E-03    5.0116888E-17
 -1.1070000E-03    4.9400976E-17
 -1.1065000E-03    3.8336989E-17
 -1.1060000E-03    1.9253238E-17
 -1.1055000E-03    1.2043025E-18
 -1.1050000E-03   -1.1476565E-17
 -1.1045000E-03    4.1924210E-19
 -1.1040000E-03    9.7280262E-18
 -1.1035000E-03    3.4558911E-17
 -1.1030000E-03    6.4563836E-17
 -1.1025000E-03    1.0698644E-16
 -1.1020000E-03    1.6700076E-16
 -1.1015000E-03    2.1977142E-16
 -1.1010000E-03    2.7771608E-16
 -1.1005000E-03    3.1392976E-16
 -1.1000000E-03    3.2634284E-16
 -1.0995000E-03    3.1036338E-16
 -1.0990000E-03    2.6903116E-16
 -1.0985000E-03    2.0079394E-16
 -1.0980000E-03    8.7025204E-17
 -1.0975000E-03   -5.9857310E-17
 -1.0970000E-03   -2.0260061E-16
 -1.0965000E-03   -3.3292614E-16
 -1.0960000E-03   -5.0050467E-16
 -1.0955000E-03   -6.7429201E-16
 -1.0950000E-03   -8.4187039E-16
 -1.0945000E-03   -9.8047420E-16
 -1.0939999E-03   -1.0414672E-15
 -1.0934999E-03   -1.0388195E-15
 -1.0930001E-03   -8.8508987E-16
 -1.0925001E-03   -5.6165167E-16
 -1.0920000E-03   -2.0509957E-16
 -1.0915000E-03    3.0874330E-16
 -1.0910000E-03    8.3914305E-16
 -1.0905000E-03    1.2453659E-15
 -1.0900000E-03    1.6184745E-15
 -1.0895000E-03    1.9584691E-15
 -1.0890000E-03    2.2570715E-15
 -1.0885000E-03    2.4087311E-15
 -1.0880000E-03    2.5319335E-15
 -1.0875000E-03    2.6551357E-15
 -1.0870000E-03    2.7286671E-15
 -1.0865000E-03    2.6697428E-15
 -1.0860000E-03    2.6356538E-15
 -1.0855000E-03    2.7009060E-15
 -1.0850000E-03    2.7330441E-15
 -1.0845000E-03    2.7486253E-15
 -1.0840000E-03    2.5986365E-15
 -1.0835000E-03    2.4817612E-15
 -1.0830000E-03    2.1579242E-15
 -1.0825000E-03    1.5195052E-15
 -1.0820000E-03    8.9350382E-16
 -1.0815000E-03   -5.6870838E-18
 -1.0810000E-03   -9.5454843E-16
 -1.0805000E-03   -1.7378399E-15
 -1.0800000E-03   -2.9681682E-15
 -1.0795000E-03   -4.6620897E-15
 -1.0790000E-03   -6.1573264E-15
 -1.0784999E-03   -7.0565133E-15
 -1.0779999E-03   -7.5086616E-15
 -1.0775001E-03   -6.9011654E-15
 -1.0770001E-03   -5.0932896E-15
 -1.0765000E-03   -1.7933011E-15
 -1.0760000E-03    2.1524077E-15
 -1.0755000E-03    7.0749748E-15
 -1.0750000E-03    1.2924729E-14
 -1.0745000E-03    1.8873822E-14
 -1.0740000E-03    2.3663929E-14
 -1.0735000E-03    2.7030138E-14
 -1.0730000E-03    3.0065204E-14
 -1.0725000E-03    3.1577033E-14
 -1.0720000E-03    3.1962985E-14
 -1.0715000E-03    3.0478004E-14
 -1.0710000E-03    2.7370442E-14
 -1.0705000E-03    2.1893171E-14
 -1.0700000E-03    1.3899246E-14
 -1.0695000E-03    3.7198070E-15
 -1.0690000E-03   -6.0291483E-15
 -1.0685000E-03   -1.6639058E-14
 -1.0680000E-03   -2.6321776E-14
 -1.0675000E-03   -3.4845506E-14
 -1.0670000E-03   -4.2640726E-14
 -1.0665000E-03   -5.0568392E-14
 -1.0660000E-03   -5.7204614E-14
 -1.0655000E-03   -6.2946759E-14
 -1.0650000E-03   -6.7521638E-14
 -1.0645000E-03   -6.9670405E-14
 -1.0640000E-03   -6.9538457E-14
 -1.0634999E-03   -6.6012340E-14
 -1.0629999E-03   -6.1596290E-14
 -1.0625001E-03   -5.7623143E-14
 -1.0620001E-03   -5.0487622E-14
 -1.0615001E-03   -3.8865182E-14
 -1.0610000E-03   -2.8997780E-14
 -1.0605000E-03   -1.9759544E-14
 -1.0600000E-03   -1.4395632E-14
 -1.0595000E-03   -1.1747057E-14
 -1.0590000E-03   -1.2778258E-14
 -1.0585000E-03   -1.9703716E-14
 -1.0580000E-03   -3.2722116E-14
 -1.0575000E-03   -5.2893105E-14
 -1.0570000E-03   -7.4653567E-14
 -1.0565000E-03   -9.1380726E-14
 -1.0560000E-03   -1.0148512E-13
 -1.0555000E-03   -8.8277374E-14
 -1.0550000E-03   -6.7387231E-14
 -1.0545000E-03   -3.8019951E-14
 -1.0540000E-03    1.8500682E-14
 -1.0535000E-03    8.8333068E-14
 -1.0530000E-03    1.6903505E-13
 -1.0525000E-03    2.4973703E-13
 -1.0520000E-03    3.3361793E-13
 -1.0515000E-03    4.2862507E-13
 -1.0510000E-03    5.1356564E-13
 -1.0505000E-03    5.8737992E-13
 -1.0500000E-03    6.3894164E-13
 -1.0495000E-03    6.6772109E-13
 -1.0490000E-03    6.6047265E-13
 -1.0485000E-03    6.2249457E-13
 -1.0479999E-03    5.4954831E-13
 -1.0474999E-03    4.4348821E-13
 -1.0470001E-03    3.0954623E-13
 -1.0465001E-03    1.4434477E-13
 -1.0460000E-03   -5.1586377E-14
 -1.0455000E-03   -2.3798070E-13
 -1.0450000E-03   -4.3285219E-13
 -1.0445000E-03   -6.1500794E-13
 -1.0440000E-03   -7.5901655E-13
 -1.0435000E-03   -8.5216220E-13
 -1.0430000E-03   -9.0080276E-13
 -1.0425000E-03   -9.2719083E-13
 -1.0420000E-03   -9.1331229E-13
 -1.0415000E-03   -8.5810758E-13
 -1.0410000E-03   -7.1336296E-13
 -1.0405000E-03   -4.9550294E-13
 -1.0400000E-03   -2.2254145E-13
 -1.0395000E-03    9.2805632E-14
 -1.0390000E-03    4.1662976E-13
 -1.0385000E-03    7.0654517E-13
 -1.0380000E-03    9.5407460E-13
 -1.0375000E-03    1.1253096E-12
 -1.0370000E-03    1.2075344E-12
 -1.0365000E-03    1.2367768E-12
 -1.0360000E-03    1.1748895E-12
 -1.0355000E-03    1.0483639E-12
 -1.0350000E-03    8.3706664E-13
 -1.0345000E-03    4.9225435E-13
 -1.0340000E-03    1.6863495E-13
 -1.0335000E-03   -2.3975575E-13
 -1.0329999E-03   -7.1596348E-13
 -1.0324999E-03   -1.2006479E-12
 -1.0319999E-03   -1.6429462E-12
 -1.0315001E-03   -1.8902698E-12
 -1.0310001E-03   -2.0019589E-12
 -1.0305000E-03   -2.0458303E-12
 -1.0300000E-03   -1.9222774E-12
 -1.0295000E-03   -1.6858724E-12
 -1.0290000E-03   -1.1167390E-12
 -1.0285000E-03   -4.0349397E-13
 -1.0280000E-03    4.5386251E-13
 -1.0275000E-03    1.3281731E-12
 -1.0270000E-03    2.3381175E-12
 -1.0265000E-03    3.2887213E-12
 -1.0260000E-03    4.3495272E-12
 -1.0255000E-03    5.6392148E-12
 -1.0250000E-03    6.8017449E-12
 -1.0245000E-03    7.5997568E-12
 -1.0240000E-03    7.9951028E-12
 -1.0235000E-03    8.0889783E-12
 -1.0230000E-03    7.8310518E-12
 -1.0225000E-03    7.0305879E-12
 -1.0220000E-03    6.0690571E-12
 -1.0215000E-03    4.7175788E-12
 -1.0210000E-03    3.0270148E-12
 -1.0205000E-03    1.0651844E-12
 -1.0200000E-03   -1.1170498E-12
 -1.0195000E-03   -3.5027335E-12
 -1.0190000E-03   -5.8714591E-12
 -1.0185000E-03   -8.0791155E-12
 -1.0180000E-03   -9.9392057E-12
 -1.0174999E-03   -1.1116883E-11
 -1.0169999E-03   -1.1370551E-11
 -1.0165001E-03   -1.0759547E-11
 -1.0160001E-03   -8.5887486E-12
 -1.0155000E-03   -5.8415044E-12
 -1.0150000E-03   -2.6195422E-12
 -1.0145000E-03    7.7196046E-13
 -1.0140000E-03    4.2651863E-12
 -1.0135000E-03    8.1144466E-12
 -1.0130000E-03    1.1692433E-11
 -1.0125000E-03    1.4778742E-11
 -1.0120000E-03    1.7017332E-11
 -1.0115000E-03    1.8403962E-11
 -1.0110000E-03    1.8569878E-11
 -1.0105000E-03    1.7040362E-11
 -1.0100000E-03    1.4391861E-11
 -1.0095000E-03    1.0776966E-11
 -1.0090000E-03    6.1448151E-12
 -1.0085000E-03    1.5632543E-13
 -1.0080000E-03   -6.2560174E-12
 -1.0075000E-03   -1.2973531E-11
 -1.0070000E-03   -1.9301089E-11
 -1.0065000E-03   -2.4365544E-11
 -1.0060000E-03   -2.7842647E-11
 -1.0055000E-03   -2.9848953E-11
 -1.0050000E-03   -2.8922163E-11
 -1.0045000E-03   -2.5638720E-11
 -1.0040000E-03   -2.0049497E-11
 -1.0035000E-03   -1.1849309E-11
 -1.0030000E-03   -8.3471495E-13
 -1.0025000E-03    1.1417536E-11
 -1.0019999E-03    2.4059730E-11
 -1.0014999E-03    3.6786685E-11
 -1.0010001E-03    4.8403125E-11
 -1.0005001E-03    5.7823968E-11
 -1.0000000E-03    6.3879374E-11
 -9.9950004E-04    6.6959292E-11
 -9.9900004E-04    6.6004084E-11
 -9.9850004E-04    6.1691915E-11
 -9.9800003E-04    5.4073662E-11
 -9.9750003E-04    4.2895004E-11
 -9.9700002E-04    2.9563154E-11
 -9.9650002E-04    1.5095371E-11
 -9.9600002E-04   -1.9468391E-13
 -9.9550001E-04   -1.4341369E-11
 -9.9500001E-04   -2.6415380E-11
 -9.9450001E-04   -3.6980443E-11
 -9.9400000E-04   -4.3900317E-11
 -9.9350000E-04   -4.6920690E-11
 -9.9299999E-04   -4.6075473E-11
 -9.9249999E-04   -4.1161217E-11
 -9.9199999E-04   -3.1991427E-11
 -9.9149998E-04   -2.0259419E-11
 -9.9099998E-04   -6.1580498E-12
 -9.9049998E-04    1.0613615E-11
 -9.8999997E-04    2.7876942E-11
 -9.8949997E-04    4.4784218E-11
 -9.8899996E-04    6.0436864E-11
 -9.8849996E-04    7.2766453E-11
 -9.8799996E-04    8.0365777E-11
 -9.8749995E-04    8.4387733E-11
 -9.8699995E-04    8.4298249E-11
 -9.8649994E-04    7.9885411E-11
 -9.8600006E-04    7.1386584E-11
 -9.8550005E-04    5.7225016E-11
 -9.8500005E-04    3.9367398E-11
 -9.8450005E-04    1.7678114E-11
 -9.8400004E-04   -5.9100481E-12
 -9.8350004E-04   -3.1329266E-11
 -9.8300003E-04   -5.7901357E-11
 -9.8250003E-04   -8.5151615E-11
 -9.8200003E-04   -1.0656957E-10
 -9.8150002E-04   -1.2154489E-10
 -9.8100002E-04   -1.2758951E-10
 -9.8050002E-04   -1.2603858E-10
 -9.8000001E-04   -1.1533233E-10
 -9.7950001E-04   -9.4589114E-11
 -9.7900000E-04   -6.5640021E-11
 -9.7850000E-04   -3.0858642E-11
 -9.7800000E-04    9.8906378E-12
 -9.7749999E-04    5.4980211E-11
 -9.7699999E-04    1.0264683E-10
 -9.7649998E-04    1.4732948E-10
 -9.7599998E-04    1.9157131E-10
 -9.7549998E-04    2.2750551E-10
 -9.7499997E-04    2.5745484E-10
 -9.7450003E-04    2.7289127E-10
 -9.7400002E-04    2.7327224E-10
 -9.7350002E-04    2.5859784E-10
 -9.7300002E-04    2.2764726E-10
 -9.7250001E-04    1.8272635E-10
 -9.7200001E-04    1.1990169E-10
 -9.7150001E-04    4.9481523E-11
 -9.7100000E-04   -2.6364005E-11
 -9.7050000E-04   -1.0153136E-10
 -9.6999999E-04   -1.6998478E-10
 -9.6949999E-04   -2.2785869E-10
 -9.6899999E-04   -2.7111799E-10
 -9.6849998E-04   -3.0000000E-10
 -9.6799998E-04   -3.0609540E-10
 -9.6749997E-04   -2.8750530E-10
 -9.6700003E-04   -2.4884131E-10
 -9.6650003E-04   -1.8766201E-10
 -9.6600002E-04   -1.0450997E-10
 -9.6550002E-04   -9.1508650E-12
 -9.6500001E-04    8.7293318E-11
 -9.6450001E-04    1.7139475E-10
 -9.6400001E-04    2.4220395E-10
 -9.6350000E-04    2.8948050E-10
 -9.6300000E-04    3.0705302E-10
 -9.6249999E-04    2.9980440E-10
 -9.6199999E-04    2.7085420E-10
 -9.6149999E-04    2.2888302E-10
 -9.6099998E-04    1.6982188E-10
 -9.6049998E-04    9.8282354E-11
 -9.5999998E-04    2.4030179E-11
 -9.5949997E-04   -4.5881618E-11
 -9.5900003E-04   -1.0087352E-10
 -9.5850002E-04   -1.4881232E-10
 -9.5800002E-04   -1.9200382E-10
 -9.5750001E-04   -2.1254426E-10
 -9.5700001E-04   -1.9846390E-10
 -9.5650001E-04   -1.6634405E-10
 -9.5600000E-04   -1.1604909E-10
 -9.5550000E-04   -4.8664128E-11
 -9.5500000E-04    2.4417513E-11
 -9.5449999E-04    9.9669335E-11
 -9.5399999E-04    1.7492117E-10
 -9.5349998E-04    2.4718902E-10
 -9.5299998E-04    3.1267502E-10
 -9.5249998E-04    3.7463435E-10
 -9.5199997E-04    4.2085996E-10
 -9.5150003E-04    4.5691279E-10
 -9.5100002E-04    4.7665538E-10
 -9.5050002E-04    4.7944343E-10
 -9.5000002E-04    4.5673196E-10
 -9.4950001E-04    4.0472331E-10
 -9.4900001E-04    3.2124736E-10
 -9.4850000E-04    2.0630424E-10
 -9.4800000E-04    7.6712629E-11
 -9.4750000E-04   -6.8069918E-11
 -9.4699999E-04   -2.4052169E-10
 -9.4649999E-04   -4.2246770E-10
 -9.4599999E-04   -6.0359961E-10
 -9.4549998E-04   -7.6750567E-10
 -9.4499998E-04   -8.9495961E-10
 -9.4449997E-04   -9.8741959E-10
 -9.4400003E-04   -9.9768482E-10
 -9.4350002E-04   -9.5125485E-10
 -9.4300002E-04   -8.4785817E-10
 -9.4250002E-04   -6.8803763E-10
 -9.4200001E-04   -4.7179327E-10
 -9.4150001E-04   -2.2218299E-10
 -9.4100001E-04    6.5404730E-11
 -9.4050000E-04    3.5909570E-10
 -9.4000000E-04    6.3508615E-10
 -9.3949999E-04    8.7214497E-10
 -9.3899999E-04    1.0681062E-09
 -9.3849999E-04    1.2054729E-09
 -9.3799998E-04    1.2899419E-09
 -9.3749998E-04    1.3410445E-09
 -9.3699998E-04    1.3194469E-09
 -9.3649997E-04    1.2069741E-09
 -9.3600003E-04    1.0215300E-09
 -9.3550002E-04    7.7952633E-10
 -9.3500002E-04    4.9832460E-10
 -9.3450001E-04    2.1885248E-10
 -9.3400001E-04   -5.7499668E-11
 -9.3350001E-04   -2.9465305E-10
 -9.3300000E-04   -4.8053617E-10
 -9.3250000E-04   -5.9019239E-10
 -9.3200000E-04   -6.0381905E-10
 -9.3149999E-04   -5.1219318E-10
 -9.3099999E-04   -3.5926032E-10
 -9.3049998E-04   -1.7065546E-10
 -9.2999998E-04    8.3732132E-11
 -9.2949998E-04    3.4985209E-10
 -9.2899997E-04    6.1108907E-10
 -9.2850003E-04    8.0667878E-10
 -9.2800002E-04    9.5425357E-10
 -9.2750002E-04    1.0090542E-09
 -9.2700002E-04    9.8193109E-10
 -9.2650001E-04    8.6854429E-10
 -9.2600001E-04    6.7323397E-10
 -9.2550000E-04    4.1770171E-10
 -9.2500000E-04    1.0900065E-10
 -9.2450000E-04   -2.3401595E-10
 -9.2399999E-04   -6.2440270E-10
 -9.2349999E-04   -1.0063800E-09
 -9.2299999E-04   -1.3690968E-09
 -9.2249998E-04   -1.6520603E-09
 -9.2199998E-04   -1.8487599E-09
 -9.2149997E-04   -1.9657060E-09
 -9.2100003E-04   -1.9947608E-09
 -9.2050002E-04   -1.9267010E-09
 -9.2000002E-04   -1.7642392E-09
 -9.1950002E-04   -1.5209393E-09
 -9.1900001E-04   -1.2014127E-09
 -9.1850001E-04   -7.8972273E-10
 -9.1800001E-04   -3.2486419E-10
 -9.1750000E-04    1.6657835E-10
 -9.1700000E-04    6.6290323E-10
 -9.1649999E-04    1.1820142E-09
 -9.1599999E-04    1.6197439E-09
 -9.1549999E-04    1.9891133E-09
 -9.1499998E-04    2.2521447E-09
 -9.1449998E-04    2.4110087E-09
 -9.1399997E-04    2.4602795E-09
 -9.1349997E-04    2.3988724E-09
 -9.1300003E-04    2.2349256E-09
 -9.1250002E-04    1.9702699E-09
 -9.1200002E-04    1.6464780E-09
 -9.1150001E-04    1.2526989E-09
 -9.1100001E-04    7.9381585E-10
 -9.1050001E-04    3.0238101E-10
 -9.1000000E-04   -1.6084124E-10
 -9.0950000E-04   -6.6095535E-10
 -9.0899999E-04   -1.1230913E-09
 -9.0849999E-04   -1.5298877E-09
 -9.0799999E-04   -1.8824298E-09
 -9.0749998E-04   -2.1546760E-09
 -9.0699998E-04   -2.3493389E-09
 -9.0649998E-04   -2.4547542E-09
 -9.0599997E-04   -2.4874693E-09
 -9.0550003E-04   -2.4583353E-09
 -9.0500002E-04   -2.3695221E-09
 -9.0450002E-04   -2.1787125E-09
 -9.0400001E-04   -1.9944137E-09
 -9.0350001E-04   -1.8274764E-09
 -9.0300001E-04   -1.6388382E-09
 -9.0250000E-04   -1.4719019E-09
 -9.0200000E-04   -1.2507123E-09
 -9.0150000E-04   -9.1342034E-10
 -9.0099999E-04   -5.1373689E-10
 -9.0049999E-04   -8.1298135E-11
 -8.9999998E-04    3.5765091E-10
 -8.9949998E-04    7.7598350E-10
 -8.9899998E-04    1.1726142E-09
 -8.9849997E-04    1.4672478E-09
 -8.9800003E-04    1.5817586E-09
 -8.9750002E-04    1.6181445E-09
 -8.9700002E-04    1.5612140E-09
 -8.9650002E-04    1.3805852E-09
 -8.9600001E-04    1.0415359E-09
 -8.9550001E-04    4.8981247E-10
 -8.9500000E-04   -1.1399399E-10
 -8.9450000E-04   -8.0677592E-10
 -8.9400000E-04   -1.5157655E-09
 -8.9349999E-04   -2.2101057E-09
 -8.9299999E-04   -2.8545322E-09
 -8.9249999E-04   -3.3427074E-09
 -8.9199998E-04   -3.6507601E-09
 -8.9149998E-04   -3.7266075E-09
 -8.9099997E-04   -3.4769323E-09
 -8.9050003E-04   -3.0666667E-09
 -8.9000002E-04   -2.4675988E-09
 -8.8950002E-04   -1.5343286E-09
 -8.8900002E-04   -4.0574608E-10
 -8.8850001E-04    7.5755791E-10
 -8.8800001E-04    1.9566682E-09
 -8.8750001E-04    3.0828060E-09
 -8.8700000E-04    4.0532355E-09
 -8.8650000E-04    4.7133328E-09
 -8.8599999E-04    5.0327165E-09
 -8.8549999E-04    4.9744941E-09
 -8.8499999E-04    4.5473469E-09
 -8.8449998E-04    3.7512757E-09
 -8.8399998E-04    2.7164886E-09
 -8.8349998E-04    1.4364760E-09
 -8.8299997E-04    1.0112617E-10
 -8.8250003E-04   -1.2651465E-09
 -8.8200002E-04   -2.5234528E-09
 -8.8150002E-04   -3.6310674E-09
 -8.8100001E-04   -4.4478807E-09
 -8.8050001E-04   -4.8588751E-09
 -8.8000001E-04   -4.8868367E-09
 -8.7950000E-04   -4.5447872E-09
 -8.7900000E-04   -3.8066856E-09
 -8.7850000E-04   -2.7756151E-09
 -8.7799999E-04   -1.4472358E-09
 -8.7749999E-04   -1.1343268E-10
 -8.7699998E-04    1.2871004E-09
 -8.7649998E-04    2.5690869E-09
 -8.7599998E-04    3.7324925E-09
 -8.7549997E-04    4.7312358E-09
 -8.7500003E-04    5.3653921E-09
 -8.7450002E-04    5.6045799E-09
 -8.7400002E-04    5.4260116E-09
 -8.7350002E-04    4.8383697E-09
 -8.7300001E-04    3.8959080E-09
 -8.7250001E-04    2.6344353E-09
 -8.7200000E-04    1.1781920E-09
 -8.7150000E-04   -4.6196993E-10
 -8.7100000E-04   -2.0334989E-09
 -8.7049999E-04   -3.5494836E-09
 -8.6999999E-04   -4.7244804E-09
 -8.6949999E-04   -5.6751355E-09
 -8.6899998E-04   -6.0399841E-09
 -8.6849998E-04   -5.9386549E-09
 -8.6799997E-04   -5.2527400E-09
 -8.6750003E-04   -4.0385286E-09
 -8.6700002E-04   -2.3493081E-09
 -8.6650002E-04   -2.8858513E-10
 -8.6600002E-04    1.9551074E-09
 -8.6550001E-04    4.1689594E-09
 -8.6500001E-04    6.2192340E-09
 -8.6450001E-04    8.0372322E-09
 -8.6400000E-04    9.2999421E-09
 -8.6350000E-04    9.9940687E-09
 -8.6299999E-04    1.0153793E-08
 -8.6249999E-04    9.5192405E-09
 -8.6199999E-04    8.2607672E-09
 -8.6149998E-04    6.3230368E-09
 -8.6099998E-04    3.8080459E-09
 -8.6049997E-04    8.0477219E-10
 -8.5999997E-04   -2.4285360E-09
 -8.5950003E-04   -5.6987344E-09
 -8.5900002E-04   -8.8940597E-09
 -8.5850002E-04   -1.1939369E-08
 -8.5800001E-04   -1.4530842E-08
 -8.5750001E-04   -1.6469098E-08
 -8.5700001E-04   -1.7715070E-08
 -8.5650000E-04   -1.8242721E-08
 -8.5600000E-04   -1.7737378E-08
 -8.5549999E-04   -1.6081856E-08
 -8.5499999E-04   -1.3328236E-08
 -8.5449999E-04   -9.4721813E-09
 -8.5399998E-04   -4.6048392E-09
 -8.5349998E-04    1.0611150E-09
 -8.5299998E-04    7.1676047E-09
 -8.5249997E-04    1.3449871E-08
 -8.5200003E-04    1.9543331E-08
 -8.5150002E-04    2.5006354E-08
 -8.5100002E-04    2.9460253E-08
 -8.5050002E-04    3.2468826E-08
 -8.5000001E-04    3.3776001E-08
 -8.4950001E-04    3.3195143E-08
 -8.4900000E-04    3.0747955E-08
 -8.4850000E-04    2.6547285E-08
 -8.4800000E-04    2.0775429E-08
 -8.4749999E-04    1.3796975E-08
 -8.4699999E-04    6.1414394E-09
 -8.4649998E-04   -1.6095767E-09
 -8.4599998E-04   -8.6900087E-09
 -8.4549998E-04   -1.4597196E-08
 -8.4499997E-04   -1.8735706E-08
 -8.4450003E-04   -2.0877675E-08
 -8.4400002E-04   -2.0806084E-08
 -8.4350002E-04   -1.8573022E-08
 -8.4300002E-04   -1.4421548E-08
 -8.4250001E-04   -8.6468042E-09
 -8.4200001E-04   -1.8998343E-09
 -8.4150000E-04    5.5242184E-09
 -8.4100000E-04    1.3165282E-08
 -8.4050000E-04    2.0120572E-08
 -8.3999999E-04    2.5669602E-08
 -8.3949999E-04    2.9493355E-08
 -8.3899999E-04    3.1193750E-08
 -8.3849998E-04    3.0619820E-08
 -8.3799998E-04    2.7615318E-08
 -8.3749997E-04    2.2293097E-08
 -8.3700003E-04    1.4965655E-08
 -8.3650002E-04    6.1104299E-09
 -8.3600002E-04   -3.6909791E-09
 -8.3550002E-04   -1.3405579E-08
 -8.3500001E-04   -2.2686143E-08
 -8.3450001E-04   -3.0794819E-08
 -8.3400001E-04   -3.7323620E-08
 -8.3350000E-04   -4.2016467E-08
 -8.3300000E-04   -4.4769195E-08
 -8.3249999E-04   -4.5363429E-08
 -8.3199999E-04   -4.4086988E-08
 -8.3149999E-04   -4.1117826E-08
 -8.3099998E-04   -3.6560113E-08
 -8.3049998E-04   -3.0761072E-08
 -8.2999998E-04   -2.4041890E-08
 -8.2949997E-04   -1.6680346E-08
 -8.2900003E-04   -9.2059569E-09
 -8.2850002E-04   -1.8617844E-09
 -8.2800002E-04    4.8486974E-09
 -8.2750001E-04    1.0621666E-08
 -8.2700001E-04    1.5339930E-08
 -8.2650001E-04    1.8937303E-08
 -8.2600000E-04    2.1297682E-08
 -8.2550000E-04    2.2464469E-08
 -8.2500000E-04    2.2424649E-08
 -8.2449999E-04    2.1265024E-08
 -8.2399999E-04    1.9254697E-08
 -8.2349998E-04    1.6549926E-08
 -8.2299998E-04    1.3324319E-08
 -8.2249998E-04    9.8296207E-09
 -8.2199997E-04    6.0484702E-09
 -8.2150003E-04    2.3367739E-09
 -8.2100002E-04   -1.3358481E-09
 -8.2050002E-04   -4.8467812E-09
 -8.2000002E-04   -8.0647320E-09
 -8.1950001E-04   -1.0844302E-08
 -8.1900001E-04   -1.3294000E-08
 -8.1850000E-04   -1.5405149E-08
 -8.1800000E-04   -1.7082263E-08
 -8.1750000E-04   -1.8255902E-08
 -8.1699999E-04   -1.8908707E-08
 -8.1649999E-04   -1.8945197E-08
 -8.1599999E-04   -1.8556344E-08
 -8.1549998E-04   -1.7742153E-08
 -8.1499998E-04   -1.6849850E-08
 -8.1449997E-04   -1.5898966E-08
 -8.1400003E-04   -1.4900352E-08
 -8.1350002E-04   -1.3845327E-08
 -8.1300002E-04   -1.2798995E-08
 -8.1250002E-04   -1.1822116E-08
 -8.1200001E-04   -1.1088297E-08
 -8.1150001E-04   -1.0319757E-08
 -8.1100001E-04   -9.6206563E-09
 -8.1050000E-04   -8.6090450E-09
 -8.1000000E-04   -7.7536697E-09
 -8.0949999E-04   -6.3687629E-09
 -8.0899999E-04   -4.4195989E-09
 -8.0849999E-04   -2.0971522E-09
 -8.0799998E-04    7.3529555E-10
 -8.0749998E-04    4.1471870E-09
 -8.0699997E-04    7.7240188E-09
 -8.0649997E-04    1.1135924E-08
 -8.0600003E-04    1.3948866E-08
 -8.0550002E-04    1.5997911E-08
 -8.0500002E-04    1.7352495E-08
 -8.0450001E-04    1.7960531E-08
 -8.0400001E-04    1.7613681E-08
 -8.0350001E-04    1.6641808E-08
 -8.0300000E-04    1.5201159E-08
 -8.0250000E-04    1.3413269E-08
 -8.0200000E-04    1.1720847E-08
 -8.0149999E-04    1.0401679E-08
 -8.0099999E-04    9.7812913E-09
 -8.0049998E-04    9.4234940E-09
 -7.9999998E-04    9.3955661E-09
 -7.9949998E-04    9.9579331E-09
 -7.9899997E-04    1.0589764E-08
 -7.9850003E-04    1.0857032E-08
 -7.9800002E-04    1.0933353E-08
 -7.9750002E-04    1.0488860E-08
 -7.9700002E-04    8.7422976E-09
 -7.9650001E-04    5.9888032E-09
 -7.9600001E-04    2.4367059E-09
 -7.9550000E-04   -2.5563649E-09
 -7.9500000E-04   -8.6952756E-09
 -7.9450000E-04   -1.5815099E-08
 -7.9399999E-04   -2.3546916E-08
 -7.9349999E-04   -3.1631394E-08
 -7.9299998E-04   -3.9049652E-08
 -7.9249998E-04   -4.4957503E-08
 -7.9199998E-04   -4.8929593E-08
 -7.9149997E-04   -5.0210708E-08
 -7.9100003E-04   -4.8983143E-08
 -7.9050002E-04   -4.5281613E-08
 -7.9000002E-04   -3.8385622E-08
 -7.8950002E-04   -2.9614620E-08
 -7.8900001E-04   -1.9090134E-08
 -7.8850001E-04   -7.7149425E-09
 -7.8800000E-04    3.3998360E-09
 -7.8750000E-04    1.3021558E-08
 -7.8700000E-04    2.0585981E-08
 -7.8649999E-04    2.4799693E-08
 -7.8599999E-04    2.4877099E-08
 -7.8549999E-04    2.0993980E-08
 -7.8499998E-04    1.3253413E-08
 -7.8449998E-04    2.9130032E-09
 -7.8399997E-04   -8.9986001E-09
 -7.8350003E-04   -2.1344237E-08
 -7.8300002E-04   -3.2283619E-08
 -7.8250002E-04   -4.1139661E-08
 -7.8200002E-04   -4.7044288E-08
 -7.8150001E-04   -4.8903754E-08
 -7.8100001E-04   -4.6370822E-08
 -7.8050001E-04   -3.8803137E-08
 -7.8000000E-04   -2.6165967E-08
 -7.7950000E-04   -9.2926546E-09
 -7.7899999E-04    1.1252559E-08
 -7.7849999E-04    3.3716191E-08
 -7.7799999E-04    5.6432647E-08
 -7.7749998E-04    7.7977219E-08
 -7.7699998E-04    9.6292595E-08
 -7.7649998E-04    1.0924335E-07
 -7.7599997E-04    1.1563155E-07
 -7.7550003E-04    1.1493636E-07
 -7.7500002E-04    1.0672374E-07
 -7.7450002E-04    9.1393005E-08
 -7.7400001E-04    6.9551803E-08
 -7.7350001E-04    4.1686242E-08
 -7.7300001E-04    9.9143982E-09
 -7.7250000E-04   -2.3663015E-08
 -7.7200000E-04   -5.6676189E-08
 -7.7150000E-04   -8.7310859E-08
 -7.7099999E-04   -1.1317986E-07
 -7.7049999E-04   -1.3255574E-07
 -7.6999998E-04   -1.4417112E-07
 -7.6949998E-04   -1.4608156E-07
 -7.6899998E-04   -1.3826968E-07
 -7.6849997E-04   -1.2146467E-07
 -7.6800003E-04   -9.6291522E-08
 -7.6750002E-04   -6.4243316E-08
 -7.6700002E-04   -2.7160347E-08
 -7.6650002E-04    1.2457357E-08
 -7.6600001E-04    5.1623665E-08
 -7.6550001E-04    8.7795144E-08
 -7.6500000E-04    1.1822437E-07
 -7.6450000E-04    1.4142044E-07
 -7.6400000E-04    1.5624838E-07
 -7.6349999E-04    1.6272551E-07
 -7.6299999E-04    1.6019214E-07
 -7.6249999E-04    1.4942952E-07
 -7.6199998E-04    1.3154877E-07
 -7.6149998E-04    1.0870269E-07
 -7.6099997E-04    8.2488505E-08
 -7.6050003E-04    5.4017359E-08
 -7.6000002E-04    2.4383022E-08
 -7.5950002E-04   -5.2512896E-09
 -7.5900002E-04   -3.4642504E-08
 -7.5850001E-04   -6.2110907E-08
 -7.5800001E-04   -8.6041915E-08
 -7.5750001E-04   -1.0650929E-07
 -7.5700000E-04   -1.2253213E-07
 -7.5650000E-04   -1.3331181E-07
 -7.5599999E-04   -1.3857057E-07
 -7.5549999E-04   -1.3903760E-07
 -7.5499999E-04   -1.3426150E-07
 -7.5449998E-04   -1.2351313E-07
 -7.5399998E-04   -1.0811196E-07
 -7.5349997E-04   -8.8144816E-08
 -7.5299997E-04   -6.4340888E-08
 -7.5250003E-04   -3.7299149E-08
 -7.5200002E-04   -7.6880218E-09
 -7.5150002E-04    2.3200156E-08
 -7.5100001E-04    5.4539633E-08
 -7.5050001E-04    8.4524856E-08
 -7.5000001E-04    1.1129816E-07
 -7.4950000E-04    1.3317553E-07
 -7.4900000E-04    1.4840352E-07
 -7.4850000E-04    1.5569739E-07
 -7.4799999E-04    1.5375508E-07
 -7.4749999E-04    1.4136133E-07
 -7.4699998E-04    1.1952311E-07
 -7.4649998E-04    8.7945288E-08
 -7.4599998E-04    4.9466461E-08