 -1.2000001E-03    1.0000000E-24
 -1.1995001E-03    1.0000000E-24
 -1.1990000E-03    1.0000000E-24
 -1.1985000E-03    1.0000000E-24
 -1.1980000E-03    1.0000000E-24
 -1.1975000E-03    1.0000000E-24
 -1.1970000E-03    1.0000000E-24
 -1.1965000E-03    1.0000000E-24
 -1.1960000E-03    1.0000000E-24
 -1.1955000E-03    1.0000001E-24
 -1.1950000E-03    1.0000002E-24
 -1.1945000E-03    1.0000002E-24
 -1.1940000E-03    1.0000002E-24
 -1.1935000E-03    1.0000002E-24
 -1.1930000E-03    1.0000002E-24
 -1.1925000E-03    1.0000002E-24
 -1.1920000E-03    1.0000002E-24
 -1.1915000E-03    1.0000002E-24
 -1.1910000E-03    1.0000002E-24
 -1.1905000E-03    1.0000002E-24
 -1.1900000E-03    1.0000002E-24
 -1.1895000E-03    1.0000004E-24
 -1.1890000E-03    1.0000013E-24
 -1.1885000E-03    1.0000045E-24
 -1.1880000E-03    1.0000146E-24
 -1.1875000E-03    1.0000446E-24
 -1.1870000E-03    1.0001269E-24
 -1.1865000E-03    1.0003374E-24
 -1.1860000E-03    1.0008405E-24
 -1.1854999E-03    1.0019643E-24
 -1.1849999E-03    1.0043047E-24
 -1.1845001E-03    1.0088192E-24
 -1.1840001E-03    1.0167694E-24
 -1.1835000E-03    1.0291456E-24
 -1.1830000E-03    1.0447449E-24
 -1.1825000E-03    1.0552379E-24
 -1.1820000E-03    1.0341244E-24
 -1.1815000E-03    9.1423851E-25
 -1.1810000E-03    5.4524217E-25
 -1.1805000E-03   -3.8162236E-25
 -1.1800000E-03   -2.4588201E-24
 -1.1795000E-03   -6.7587212E-24
 -1.1790000E-03   -1.5121246E-23
 -1.1785000E-03   -3.0544240E-23
 -1.1780000E-03   -5.7661876E-23
 -1.1775000E-03   -1.0324267E-22
 -1.1770000E-03   -1.7654350E-22
 -1.1765000E-03   -2.8920391E-22
 -1.1760000E-03   -4.5414356E-22
 -1.1755000E-03   -6.8262989E-22
 -1.1750000E-03   -9.7832929E-22
 -1.1745000E-03   -1.3267864E-21
 -1.1740000E-03   -1.6784943E-21
 -1.1735000E-03   -1.9236784E-21
 -1.1730000E-03   -1.8573785E-21
 -1.1725000E-03   -1.1346916E-21
 -1.1720000E-03    7.8142744E-22
 -1.1715000E-03    4.6732005E-21
 -1.1710000E-03    1.1608977E-20
 -1.1704999E-03    2.2950556E-20
 -1.1699999E-03    4.0294582E-20
 -1.1695001E-03    6.5303576E-20
 -1.1690001E-03    9.9370512E-20
 -1.1685000E-03    1.4305230E-19
 -1.1680000E-03    1.9520715E-19
 -1.1675000E-03    2.5178393E-19
 -1.1670000E-03    3.0424553E-19
 -1.1665000E-03    3.3767242E-19
 -1.1660000E-03    3.2869190E-19
 -1.1655000E-03    2.4352130E-19
 -1.1650000E-03    3.6598199E-20
 -1.1645000E-03   -3.4951005E-19
 -1.1640000E-03   -9.8198912E-19
 -1.1635000E-03   -1.9323084E-18
 -1.1630000E-03   -3.2661100E-18
 -1.1625000E-03   -5.0271620E-18
 -1.1620000E-03   -7.2143136E-18
 -1.1615000E-03   -9.7509482E-18
 -1.1610000E-03   -1.2447416E-17
 -1.1605000E-03   -1.4958443E-17
 -1.1600000E-03   -1.6739540E-17
 -1.1595000E-03   -1.7009063E-17
 -1.1590000E-03   -1.4725444E-17
 -1.1585000E-03   -8.5922832E-18
 -1.1580000E-03    2.8933717E-18
 -1.1575000E-03    2.1332364E-17
 -1.1570000E-03    4.8237206E-17
 -1.1565000E-03    8.4753601E-17
 -1.1560000E-03    1.3128132E-16
 -1.1555000E-03    1.8699651E-16
 -1.1549999E-03    2.4929347E-16
 -1.1544999E-03    3.1318453E-16
 -1.1540001E-03    3.7072297E-16
 -1.1535001E-03    4.1054165E-16
 -1.1530000E-03    4.1763076E-16
 -1.1525000E-03    3.7350212E-16
 -1.1520000E-03    2.5690639E-16
 -1.1515000E-03    4.5269676E-17
 -1.1510000E-03   -2.8300287E-16
 -1.1505000E-03   -7.4525866E-16
 -1.1500000E-03   -1.3503515E-15
 -1.1495000E-03   -2.0935260E-15
 -1.1490000E-03   -2.9507043E-15
 -1.1485000E-03   -3.8726372E-15
 -1.1480000E-03   -4.7796045E-15
 -1.1475000E-03   -5.5575551E-15
 -1.1470000E-03   -6.0567798E-15
 -1.1465000E-03   -6.0943313E-15
 -1.1460000E-03   -5.4614376E-15
 -1.1455000E-03   -3.9370434E-15
 -1.1450000E-03   -1.3083034E-15
 -1.1445000E-03    2.6016433E-15
 -1.1440000E-03    7.8990583E-15
 -1.1435000E-03    1.4579551E-14
 -1.1430000E-03    2.2485154E-14
 -1.1425000E-03    3.1262380E-14
 -1.1420000E-03    4.0326409E-14
 -1.1415000E-03    4.8837640E-14
 -1.1410000E-03    5.5697739E-14
 -1.1405000E-03    5.9572518E-14
 -1.1399999E-03    5.8948479E-14
 -1.1394999E-03    5.2228492E-14
 -1.1390001E-03    3.7869535E-14
 -1.1385001E-03    1.4561706E-14
 -1.1380001E-03   -1.8556918E-14
 -1.1375000E-03   -6.1660854E-14
 -1.1370000E-03   -1.1399050E-13
 -1.1365000E-03   -1.7362185E-13
 -1.1360000E-03   -2.3728185E-13
 -1.1355000E-03   -3.0024261E-13
 -1.1350000E-03   -3.5632958E-13
 -1.1345000E-03   -3.9807724E-13
 -1.1340000E-03   -4.1706035E-13
 -1.1335000E-03   -4.0441860E-13
 -1.1330000E-03   -3.5157817E-13
 -1.1325000E-03   -2.5115402E-13
 -1.1320000E-03   -9.7994258E-14
 -1.1315000E-03    1.0969718E-13
 -1.1310000E-03    3.6924833E-13
 -1.1305000E-03    6.7252860E-13
 -1.1300000E-03    1.0052083E-12
 -1.1295000E-03    1.3464050E-12
 -1.1290000E-03    1.6688497E-12
 -1.1285000E-03    1.9396895E-12
 -1.1280000E-03    2.1220083E-12
 -1.1275000E-03    2.1770992E-12
 -1.1270000E-03    2.0674582E-12
 -1.1265000E-03    1.7603888E-12
 -1.1260000E-03    1.2320301E-12
 -1.1255000E-03    4.7153178E-13
 -1.1250000E-03   -5.1497137E-13
 -1.1244999E-03   -1.7009910E-12
 -1.1239999E-03   -3.0373607E-12
 -1.1235001E-03   -4.4513846E-12
 -1.1230001E-03   -5.8478452E-12
 -1.1225000E-03   -7.1121607E-12
 -1.1220000E-03   -8.1158422E-12
 -1.1215000E-03   -8.7242201E-12
 -1.1210000E-03   -8.8062179E-12
 -1.1205000E-03   -8.2456750E-12
 -1.1200000E-03   -6.9535723E-12
 -1.1195000E-03   -4.8802342E-12
 -1.1190000E-03   -2.0264977E-12
 -1.1185000E-03    1.5472788E-12
 -1.1180000E-03    5.7154633E-12
 -1.1175000E-03    1.0285646E-11
 -1.1170000E-03    1.5002149E-11
 -1.1165000E-03    1.9554983E-11
 -1.1160000E-03    2.3594307E-11
 -1.1155000E-03    2.6749939E-11
 -1.1150000E-03    2.8655038E-11
 -1.1145000E-03    2.8972593E-11
 -1.1140000E-03    2.7422979E-11
 -1.1135000E-03    2.3810617E-11
 -1.1130000E-03    1.8047661E-11
 -1.1125000E-03    1.0172699E-11
 -1.1120000E-03    3.6281072E-13
 -1.1115000E-03   -1.1062319E-11
 -1.1110000E-03   -2.3644833E-11
 -1.1105000E-03   -3.6801690E-11
 -1.1100000E-03   -4.9845475E-11
 -1.1094999E-03   -6.2011722E-11
 -1.1089999E-03   -7.2491006E-11
 -1.1084999E-03   -8.0463761E-11
 -1.1080001E-03   -8.5135989E-11
 -1.1075001E-03   -8.5774277E-11
 -1.1070000E-03   -8.1739067E-11
 -1.1065000E-03   -7.2516229E-11
 -1.1060000E-03   -5.7747411E-11
 -1.1055000E-03   -3.7260743E-11
 -1.1050000E-03   -1.1103713E-11
 -1.1045000E-03    2.0419912E-11
 -1.1040000E-03    5.6707864E-11
 -1.1035000E-03    9.6812010E-11
 -1.1030000E-03    1.3938802E-10
 -1.1025000E-03    1.8264697E-10
 -1.1020000E-03    2.2431676E-10
 -1.1015000E-03    2.6162447E-10
 -1.1010000E-03    2.9131306E-10
 -1.1005000E-03    3.0970804E-10
 -1.1000000E-03    3.1284850E-10
 -1.0995000E-03    2.9669633E-10
 -1.0990000E-03    2.5743127E-10
 -1.0985000E-03    1.9183259E-10
 -1.0980000E-03    9.7737984E-11
 -1.0975000E-03   -2.5442275E-11
 -1.0970000E-03   -1.7619159E-10
 -1.0965000E-03   -3.5038333E-10
 -1.0960000E-03   -5.4086874E-10
 -1.0955000E-03   -7.3722733E-10
 -1.0950000E-03   -9.2575408E-10
 -1.0945000E-03   -1.0897537E-09
 -1.0939999E-03   -1.2102007E-09
 -1.0934999E-03   -1.2668004E-09
 -1.0930001E-03   -1.2394573E-09
 -1.0925001E-03   -1.1101112E-09
 -1.0920000E-03   -8.6486218E-10
 -1.0915000E-03   -4.9624904E-10
 -1.0910000E-03   -5.4994030E-12
 -1.0905000E-03    5.9547023E-10
 -1.0900000E-03    1.2825579E-09
 -1.0895000E-03    2.0187458E-09
 -1.0890000E-03    2.7543825E-09
 -1.0885000E-03    3.4286880E-09
 -1.0880000E-03    3.9726133E-09
 -1.0875000E-03    4.3130908E-09
 -1.0870000E-03    4.3785868E-09
 -1.0865000E-03    4.1057127E-09
 -1.0860000E-03    3.4465184E-09
 -1.0855000E-03    2.3759308E-09
 -1.0850000E-03    8.9868152E-10
 -1.0845000E-03   -9.4501229E-10
 -1.0840000E-03   -3.0757925E-09
 -1.0835000E-03   -5.3742624E-09
 -1.0830000E-03   -7.6834707E-09
 -1.0825000E-03   -9.8152171E-09
 -1.0820000E-03   -1.1560322E-08
 -1.0815000E-03   -1.2702700E-08
 -1.0810000E-03   -1.3036675E-08
 -1.0805000E-03   -1.2386566E-08
 -1.0800000E-03   -1.0627217E-08
 -1.0795000E-03   -7.7038020E-09
 -1.0790000E-03   -3.6489898E-09
 -1.0784999E-03    1.4044914E-09
 -1.0779999E-03    7.2178246E-09
 -1.0775001E-03    1.3448256E-08
 -1.0770001E-03    1.9660609E-08
 -1.0765000E-03    2.5348720E-08
 -1.0760000E-03    2.9966522E-08
 -1.0755000E-03    3.2967620E-08
 -1.0750000E-03    3.3851254E-08
 -1.0745000E-03    3.2211606E-08
 -1.0740000E-03    2.7786683E-08
 -1.0735000E-03    2.0502457E-08
 -1.0730000E-03    1.0507629E-08
 -1.0725000E-03   -1.8053544E-09
 -1.0720000E-03   -1.5796955E-08
 -1.0715000E-03   -3.0597704E-08
 -1.0710000E-03   -4.5147395E-08
 -1.0705000E-03   -5.8256031E-08
 -1.0700000E-03   -6.8684336E-08
 -1.0695000E-03   -7.5239591E-08
 -1.0690000E-03   -7.6880639E-08
 -1.0685000E-03   -7.2824157E-08
 -1.0680000E-03   -6.2643416E-08
 -1.0675000E-03   -4.6349758E-08
 -1.0670000E-03   -2.4447749E-08
 -1.0665000E-03    2.0441913E-09
 -1.0660000E-03    3.1613798E-08
 -1.0655000E-03    6.2318961E-08
 -1.0650000E-03    9.1895572E-08
 -1.0645000E-03    1.1790532E-07
 -1.0640000E-03    1.3791539E-07
 -1.0634999E-03    1.4969858E-07
 -1.0629999E-03    1.5143866E-07
 -1.0625001E-03    1.4192443E-07
 -1.0620001E-03    1.2071408E-07
 -1.0615001E-03    8.8252669E-08
 -1.0610000E-03    4.5927685E-08
 -1.0605000E-03   -3.9489456E-09
 -1.0600000E-03   -5.8238378E-08
 -1.0595000E-03   -1.1315171E-07
 -1.0590000E-03   -1.6449891E-07
 -1.0585000E-03   -2.0799553E-07
 -1.0580000E-03   -2.3960612E-07
 -1.0575000E-03   -2.5589839E-07
 -1.0570000E-03   -2.5437782E-07
 -1.0565000E-03   -2.3377265E-07
 -1.0560000E-03   -1.9423877E-07
 -1.0555000E-03   -1.3746043E-07
 -1.0550000E-03   -6.6628331E-08
 -1.0545000E-03    1.3713281E-08
 -1.0540000E-03    9.7948025E-08
 -1.0535000E-03    1.7978282E-07
 -1.0530000E-03    2.5273135E-07
 -1.0525000E-03    3.1064914E-07
 -1.0520000E-03    3.4827627E-07
 -1.0515000E-03    3.6173878E-07
 -1.0510000E-03    3.4896053E-07
 -1.0505000E-03    3.0994059E-07
 -1.0500000E-03    2.4686167E-07
 -1.0495000E-03    1.6400624E-07
 -1.0490000E-03    6.7475817E-08
 -1.0485000E-03   -3.5274528E-08
 -1.0479999E-03   -1.3605462E-07
 -1.0474999E-03   -2.2666150E-07
 -1.0470001E-03   -2.9964269E-07
 -1.0465001E-03   -3.4902797E-07
 -1.0460000E-03   -3.7095481E-07
 -1.0455000E-03   -3.6411726E-07
 -1.0450000E-03   -3.2997951E-07
 -1.0445000E-03   -2.7271560E-07
 -1.0440000E-03   -1.9886002E-07
 -1.0435000E-03   -1.1668477E-07
 -1.0430000E-03   -3.5346279E-08
 -1.0425000E-03    3.6124277E-08
 -1.0420000E-03    8.9891152E-08
 -1.0415000E-03    1.2033223E-07
 -1.0410000E-03    1.2488687E-07
 -1.0405000E-03    1.0462142E-07
 -1.0400000E-03    6.4418707E-08
 -1.0395000E-03    1.2728300E-08
 -1.0390000E-03   -3.9144602E-08
 -1.0385000E-03   -7.8186311E-08
 -1.0380000E-03   -9.1181690E-08
 -1.0375000E-03   -6.6455911E-08
 -1.0370000E-03    4.3153130E-09
 -1.0365000E-03    1.2442280E-07
 -1.0360000E-03    2.9077557E-07
 -1.0355000E-03    4.9308699E-07
 -1.0350000E-03    7.1376331E-07
 -1.0345000E-03    9.2861410E-07
 -1.0340000E-03    1.1084284E-06
 -1.0335000E-03    1.2213804E-06
 -1.0329999E-03    1.2361337E-06
 -1.0324999E-03    1.1254200E-06
 -1.0319999E-03    8.6979247E-07
 -1.0315001E-03    4.6118893E-07
 -1.0310001E-03   -9.4092393E-08
 -1.0305000E-03   -7.7339632E-07
 -1.0300000E-03   -1.5370453E-06
 -1.0295000E-03   -2.3292735E-06
 -1.0290000E-03   -3.0809085E-06
 -1.0285000E-03   -3.7137972E-06
 -1.0280000E-03   -4.1468056E-06
 -1.0275000E-03   -4.3030427E-06
 -1.0270000E-03   -4.1177923E-06
 -1.0265000E-03   -3.5465089E-06
 -1.0260000E-03   -2.5721210E-06
 -1.0255000E-03   -1.2108744E-06
 -1.0250000E-03    4.8404104E-07
 -1.0245000E-03    2.4217115E-06
 -1.0240000E-03    4.4760309E-06
 -1.0235000E-03    6.4917476E-06
 -1.0230000E-03    8.2939550E-06
 -1.0225000E-03    9.7006041E-06
 -1.0220000E-03    1.0537328E-05
 -1.0215000E-03    1.0653527E-05
 -1.0210000E-03    9.9384697E-06
 -1.0205000E-03    8.3359773E-06
 -1.0200000E-03    5.8562368E-06
 -1.0195000E-03    2.5833608E-06
 -1.0190000E-03   -1.3224591E-06
 -1.0185000E-03   -5.6290378E-06
 -1.0180000E-03   -1.0042876E-05
 -1.0174999E-03   -1.4226273E-05
 -1.0169999E-03   -1.7820121E-05
 -1.0165001E-03   -2.0471072E-05
 -1.0160001E-03   -2.1861244E-05
 -1.0155000E-03   -2.1738202E-05
 -1.0150000E-03   -1.9942740E-05
 -1.0145000E-03   -1.6431854E-05
 -1.0140000E-03   -1.1294540E-05
 -1.0135000E-03   -4.7582821E-06
 -1.0130000E-03    2.8151555E-06
 -1.0125000E-03    1.0945389E-05
 -1.0120000E-03    1.9060322E-05
 -1.0115000E-03    2.6533124E-05
 -1.0110000E-03    3.2727203E-05
 -1.0105000E-03    3.7046153E-05
 -1.0100000E-03    3.8985047E-05
 -1.0095000E-03    3.8178958E-05
 -1.0090000E-03    3.4444500E-05
 -1.0085000E-03    2.7810349E-05
 -1.0080000E-03    1.8533296E-05
 -1.0075000E-03    7.0973429E-06
 -1.0070000E-03   -5.8055357E-06
 -1.0065000E-03   -1.9312891E-05
 -1.0060000E-03   -3.2445976E-05
 -1.0055000E-03   -4.4177516E-05
 -1.0050000E-03   -5.3508647E-05
 -1.0045000E-03   -5.9549511E-05
 -1.0040000E-03   -6.1597231E-05
 -1.0035000E-03   -5.9204813E-05
 -1.0030000E-03   -5.2234707E-05
 -1.0025000E-03   -4.0891686E-05
 -1.0019999E-03   -2.5730866E-05
 -1.0014999E-03   -7.6385440E-06
 -1.0010001E-03    1.2214452E-05
 -1.0005001E-03    3.2445023E-05
 -1.0000000E-03    5.1551528E-05
 -9.9950004E-04    6.8022848E-05
 -9.9900004E-04    8.0455073E-05
 -9.9850004E-04    8.7666900E-05
 -9.9800003E-04    8.8804496E-05
 -9.9750003E-04    8.3426836E-05
 -9.9700002E-04    7.1563511E-05
 -9.9650002E-04    5.3738968E-05
 -9.9600002E-04    3.0959211E-05
 -9.9550001E-04    4.6601876E-06
 -9.9500001E-04   -2.3380244E-05
 -9.9450001E-04   -5.1161562E-05
 -9.9400000E-04   -7.6603181E-05
 -9.9350000E-04   -9.7700249E-05
 -9.9299999E-04   -1.1268088E-04
 -9.9249999E-04   -1.2015252E-04
 -9.9199999E-04   -1.1922523E-04
 -9.9149998E-04   -1.0960125E-04
 -9.9099998E-04   -9.1622198E-05
 -9.9049998E-04   -6.6268527E-05
 -9.8999997E-04   -3.5109384E-05
 -9.8949997E-04   -2.0478335E-07
 -9.8899996E-04    3.6033645E-05
 -9.8849996E-04    7.1014081E-05
 -9.8799996E-04    1.0215542E-04
 -9.8749995E-04    1.2708329E-04
 -9.8699995E-04    1.4381588E-04
 -9.8649994E-04    1.5092443E-04
 -9.8600006E-04    1.4765502E-04
 -9.8550005E-04    1.3400119E-04
 -9.8500005E-04    1.1072002E-04
 -9.8450005E-04    7.9289537E-05
 -9.8400004E-04    4.1809351E-05
 -9.8350004E-04    8.5133092E-07
 -9.8300003E-04   -4.0728530E-05
 -9.8250003E-04   -8.0002792E-05
 -9.8200003E-04   -1.1419301E-04
 -9.8150002E-04   -1.4088045E-04
 -9.8100002E-04   -1.5819001E-04
 -9.8050002E-04   -1.6493221E-04
 -9.8000001E-04   -1.6069168E-04
 -9.7950001E-04   -1.4585459E-04
 -9.7900000E-04   -1.2157268E-04
 -9.7850000E-04   -8.9666784E-05
 -9.7800000E-04   -5.2478004E-05
 -9.7749999E-04   -1.2678844E-05
 -9.7699999E-04    2.6939508E-05
 -9.7649998E-04    6.3685948E-05
 -9.7599998E-04    9.5175572E-05
 -9.7549998E-04    1.1950584E-04
 -9.7499997E-04    1.3538802E-04
 -9.7450003E-04    1.4222317E-04
 -9.7400002E-04    1.4011710E-04
 -9.7350002E-04    1.2983406E-04
 -9.7300002E-04    1.1269456E-04
 -9.7250001E-04    9.0428126E-05
 -9.7200001E-04    6.4995547E-05
 -9.7150001E-04    3.8398299E-05
 -9.7100000E-04    1.2493697E-05
 -9.7050000E-04   -1.1165980E-05
 -9.6999999E-04   -3.1454885E-05
 -9.6949999E-04   -4.7743764E-05
 -9.6899999E-04   -5.9912414E-05
 -9.6849998E-04   -6.8303816E-05
 -9.6799998E-04   -7.3625510E-05
 -9.6749997E-04   -7.6809345E-05
 -9.6700003E-04   -7.8845522E-05
 -9.6650003E-04   -8.0609869E-05
 -9.6600002E-04   -8.2704821E-05
 -9.6550002E-04   -8.5333559E-05
 -9.6500001E-04   -8.8224304E-05
 -9.6450001E-04   -9.0616501E-05
 -9.6400001E-04   -9.1315131E-05
 -9.6350000E-04   -8.8811648E-05
 -9.6300000E-04   -8.1462938E-05
 -9.6249999E-04   -6.7712688E-05
 -9.6199999E-04   -4.6333742E-05
 -9.6149999E-04   -1.6665965E-05
 -9.6099998E-04    2.1177300E-05
 -9.6049998E-04    6.6160450E-05
 -9.5999998E-04    1.1625690E-04
 -9.5949997E-04    1.6847679E-04
 -9.5900003E-04    2.1899922E-04
 -9.5850002E-04    2.6340759E-04
 -9.5800002E-04    2.9701611E-04
 -9.5750001E-04    3.1526611E-04
 -9.5700001E-04    3.1416147E-04
 -9.5650001E-04    2.9070719E-04
 -9.5600000E-04    2.4330971E-04
 -9.5550000E-04    1.7209991E-04
 -9.5500000E-04    7.9140715E-05
 -9.5449999E-04   -3.1509360E-05
 -9.5399999E-04   -1.5389675E-04
 -9.5349998E-04   -2.8044378E-04
 -9.5299998E-04   -4.0238228E-04
 -9.5249998E-04   -5.1032775E-04
 -9.5199997E-04   -5.9495779E-04
 -9.5150003E-04   -6.4774742E-04
 -9.5100002E-04   -6.6170545E-04
 -9.5050002E-04   -6.3205167E-04
 -9.5000002E-04   -5.5677618E-04
 -9.4950001E-04   -4.3702641E-04
 -9.4900001E-04   -2.7727935E-04
 -9.4850000E-04   -8.5270010E-05
 -9.4800000E-04    1.2833512E-04
 -9.4750000E-04    3.5051018E-04
 -9.4699999E-04    5.6665944E-04
 -9.4649999E-04    7.6157658E-04
 -9.4599999E-04    9.2051044E-04
 -9.4549998E-04    1.0302614E-03
 -9.4499998E-04    1.0802285E-03
 -9.4449997E-04    1.0633239E-03
 -9.4400003E-04    9.7668055E-04
 -9.4350002E-04    8.2208787E-04
 -9.4300002E-04    6.0611241E-04
 -9.4250002E-04    3.3987724E-04
 -9.4200001E-04    3.8502218E-05
 -9.4150001E-04   -2.7976860E-04
 -9.4100001E-04   -5.9470203E-04
 -9.4050000E-04   -8.8540086E-04
 -9.4000000E-04   -1.1317306E-03
 -9.3949999E-04   -1.3157475E-03
 -9.3899999E-04   -1.4230259E-03
 -9.3849999E-04   -1.4437841E-03
 -9.3799998E-04   -1.3737247E-03
 -9.3749998E-04   -1.2145153E-03
 -9.3699998E-04   -9.7386970E-04
 -9.3649997E-04   -6.6520605E-04
 -9.3600003E-04   -3.0690012E-04
 -9.3550002E-04    7.8829544E-05
 -9.3500002E-04    4.6733301E-04
 -9.3450001E-04    8.3314639E-04
 -9.3400001E-04    1.1517067E-03
 -9.3350001E-04    1.4010464E-03
 -9.3300000E-04    1.5633502E-03
 -9.3250000E-04    1.6262615E-03
 -9.3200000E-04    1.5838433E-03
 -9.3149999E-04    1.4371200E-03
 -9.3099999E-04    1.1941555E-03
 -9.3049998E-04    8.6965057E-04
 -9.2999998E-04    4.8408171E-04
 -9.2949998E-04    6.2428648E-05
 -9.2899997E-04   -3.6742748E-04
 -9.2850003E-04   -7.7653333E-04
 -9.2800002E-04   -1.1367992E-03
 -9.2750002E-04   -1.4229129E-03
 -9.2700002E-04   -1.6141003E-03
 -9.2650001E-04   -1.6956136E-03
 -9.2600001E-04   -1.6598423E-03
 -9.2550000E-04   -1.5069642E-03
 -9.2500000E-04   -1.2450883E-03
 -9.2450000E-04   -8.8987092E-04
 -9.2399999E-04   -4.6361983E-04
 -9.2349999E-04    6.0588864E-06
 -9.2299999E-04    4.8799254E-04
 -9.2249998E-04    9.4944210E-04
 -9.2199998E-04    1.3582450E-03
 -9.2149997E-04    1.6849609E-03
 -9.2100003E-04    1.9048809E-03
 -9.2050002E-04    1.9997656E-03
 -9.2000002E-04    1.9591951E-03
 -9.1950002E-04    1.7814335E-03
 -9.1900001E-04    1.4737456E-03
 -9.1850001E-04    1.0521342E-03
 -9.1800001E-04    5.4050540E-04
 -9.1750000E-04   -3.0696538E-05
 -9.1700000E-04   -6.2630326E-04
 -9.1649999E-04   -1.2085785E-03
 -9.1599999E-04   -1.7395833E-03
 -9.1549999E-04   -2.1836006E-03
 -9.1499998E-04   -2.5094647E-03
 -9.1449998E-04   -2.6926450E-03
 -9.1399997E-04   -2.7169432E-03
 -9.1349997E-04   -2.5756913E-03
 -9.1300003E-04   -2.2723631E-03
 -9.1250002E-04   -1.8205486E-03
 -9.1200002E-04   -1.2432879E-03
 -9.1150001E-04   -5.7179492E-04
 -9.1100001E-04    1.5635819E-04
 -9.1050001E-04    8.9947978E-04
 -9.1000000E-04    1.6142868E-03
 -9.0950000E-04    2.2585595E-03
 -9.0899999E-04    2.7937531E-03
 -9.0849999E-04    3.1873963E-03
 -9.0799999E-04    3.4151217E-03
 -9.0749998E-04    3.4621889E-03
 -9.0699998E-04    3.3244048E-03
 -9.0649998E-04    3.0083756E-03
 -9.0599997E-04    2.5310740E-03
 -9.0550003E-04    1.9187514E-03
 -9.0500002E-04    1.2052697E-03
 -9.0450002E-04    4.2996375E-04
 -9.0400001E-04   -3.6481826E-04
 -9.0350001E-04   -1.1363289E-03
 -9.0300001E-04   -1.8440154E-03
 -9.0250000E-04   -2.4519167E-03
 -9.0200000E-04   -2.9307064E-03
 -9.0150000E-04   -3.2592495E-03
 -9.0099999E-04   -3.4255798E-03
 -9.0049999E-04   -3.4272436E-03
 -8.9999998E-04   -3.2710079E-03
 -8.9949998E-04   -2.9719754E-03
 -8.9899998E-04   -2.5521915E-03
 -8.9849997E-04   -2.0388635E-03
 -8.9800003E-04   -1.4623438E-03
 -8.9750002E-04   -8.5403095E-04
 -8.9700002E-04   -2.4435646E-04
 -8.9650002E-04    3.3899938E-04
 -8.9600001E-04    8.7253656E-04
 -8.9550001E-04    1.3379226E-03
 -8.9500000E-04    1.7224896E-03
 -8.9450000E-04    2.0192401E-03
 -8.9400000E-04    2.2264034E-03
 -8.9349999E-04    2.3466230E-03
 -8.9299999E-04    2.3858850E-03
 -8.9249999E-04    2.3523213E-03
 -8.9199998E-04    2.2550228E-03
 -8.9149998E-04    2.1029927E-03
 -8.9099997E-04    1.9043501E-03
 -8.9050003E-04    1.6658632E-03
 -8.9000002E-04    1.3928477E-03
 -8.8950002E-04    1.0894295E-03
 -8.8900002E-04    7.5911731E-04
 -8.8850001E-04    4.0560117E-04
 -8.8800001E-04    3.3654607E-05
 -8.8750001E-04   -3.4999635E-04
 -8.8700000E-04   -7.3597935E-04
 -8.8650000E-04   -1.1118874E-03
 -8.8599999E-04   -1.4622994E-03
 -8.8549999E-04   -1.7692732E-03
 -8.8499999E-04   -2.0133238E-03
 -8.8449998E-04   -2.1748468E-03
 -8.8399998E-04   -2.2358887E-03
 -8.8349998E-04   -2.1821198E-03
 -8.8299997E-04   -2.0048229E-03
 -8.8250003E-04   -1.7026925E-03
 -8.8200002E-04   -1.2832296E-03
 -8.8150002E-04   -7.6354027E-04
 -8.8100001E-04   -1.7037765E-04
 -8.8050001E-04    4.6067344E-04
 -8.8000001E-04    1.0869004E-03
 -8.7950000E-04    1.6610066E-03
 -8.7900000E-04    2.1343641E-03
 -8.7850000E-04    2.4607670E-03
 -8.7799999E-04    2.6004103E-03
 -8.7749999E-04    2.5237768E-03
 -8.7699998E-04    2.2150925E-03
 -8.7649998E-04    1.6750137E-03
 -8.7599998E-04    9.2225120E-04
 -8.7549997E-04   -6.0986526E-06
 -8.7500003E-04   -1.0556618E-03
 -8.7450002E-04   -2.1573626E-03
 -8.7400002E-04   -3.2313860E-03
 -8.7350002E-04   -4.1923174E-03
 -8.7300001E-04   -4.9551488E-03
 -8.7250001E-04   -5.4417383E-03
 -8.7200000E-04   -5.5872491E-03
 -8.7150000E-04   -5.3460705E-03
 -8.7100000E-04   -4.6967207E-03
 -8.7049999E-04   -3.6452857E-03
 -8.6999999E-04   -2.2270395E-03
 -8.6949999E-04   -5.0600141E-04
 -8.6899998E-04    1.4276571E-03
 -8.6849998E-04    3.4622906E-03
 -8.6799997E-04    5.4713129E-03
 -8.6750003E-04    7.3211980E-03
 -8.6700002E-04    8.8804355E-03
 -8.6650002E-04    1.0028829E-02
 -8.6600002E-04    1.0666473E-02
 -8.6550001E-04    1.0721729E-02
 -8.6500001E-04    1.0157587E-02
 -8.6450001E-04    8.9758690E-03
 -8.6400000E-04    7.2188871E-03
 -8.6350000E-04    4.9683265E-03
 -8.6299999E-04    2.3413440E-03
 -8.6249999E-04   -5.1596347E-04
 -8.6199999E-04   -3.4373270E-03
 -8.6149998E-04   -6.2467759E-03
 -8.6099998E-04   -8.7701110E-03
 -8.6049997E-04   -1.0846608E-02
 -8.5999997E-04   -1.2340126E-02
 -8.5950003E-04   -1.3148825E-02
 -8.5900002E-04   -1.3212779E-02
 -8.5850002E-04   -1.2518885E-02
 -8.5800001E-04   -1.1102683E-02
 -8.5750001E-04   -9.0468656E-03
 -8.5700001E-04   -6.4765369E-03
 -8.5650000E-04   -3.5514678E-03
 -8.5600000E-04   -4.5583880E-04
 -8.5549999E-04    2.6138648E-03
 -8.5499999E-04    5.4619992E-03
 -8.5449999E-04    7.9070553E-03
 -8.5399998E-04    9.7941803E-03
 -8.5349998E-04    1.1006060E-02
 -8.5299998E-04    1.1471373E-02
 -8.5249997E-04    1.1170217E-02
 -8.5200003E-04    1.0136083E-02
 -8.5150002E-04    8.4542055E-03
 -8.5100002E-04    6.2563410E-03
 -8.5050002E-04    3.7123056E-03
 -8.5000001E-04    1.0187909E-03
 -8.4950001E-04   -1.6138020E-03
 -8.4900000E-04   -3.9756484E-03
 -8.4850000E-04   -5.8719520E-03
 -8.4800000E-04   -7.1365852E-03
 -8.4749999E-04   -7.6440005E-03
 -8.4699999E-04   -7.3185852E-03
 -8.4649998E-04   -6.1408067E-03
 -8.4599998E-04   -4.1497056E-03
 -8.4549998E-04   -1.4415230E-03
 -8.4499997E-04    1.8354931E-03
 -8.4450003E-04    5.4898034E-03
 -8.4400002E-04    9.2982836E-03
 -8.4350002E-04    1.3020203E-02
 -8.4300002E-04    1.6412577E-02
 -8.4250001E-04    1.9245926E-02
 -8.4200001E-04    2.1319428E-02
 -8.4150000E-04    2.2474485E-02
 -8.4100000E-04    2.2605792E-02
 -8.4050000E-04    2.1669229E-02
 -8.3999999E-04    1.9685978E-02
 -8.3949999E-04    1.6742595E-02
 -8.3899999E-04    1.2986982E-02
 -8.3849998E-04    8.6204708E-03
 -8.3799998E-04    3.8864657E-03
 -8.3749997E-04   -9.4367703E-04
 -8.3700003E-04   -5.5866740E-03
 -8.3650002E-04   -9.7642774E-03
 -8.3600002E-04   -1.3220123E-02
 -8.3550002E-04   -1.5735438E-02
 -8.3500001E-04   -1.7142594E-02
 -8.3450001E-04   -1.7335711E-02
 -8.3400001E-04   -1.6277565E-02
 -8.3350000E-04   -1.4002429E-02
 -8.3300000E-04   -1.0614590E-02
 -8.3249999E-04   -6.2826215E-03
 -8.3199999E-04   -1.2297677E-03
 -8.3149999E-04    4.2790212E-03
 -8.3099998E-04    9.9526048E-03
 -8.3049998E-04    1.5490777E-02
 -8.2999998E-04    2.0601962E-02
 -8.2949997E-04    2.5020396E-02
 -8.2900003E-04    2.8521735E-02
 -8.2850002E-04    3.0936161E-02
 -8.2800002E-04    3.2158140E-02
 -8.2750001E-04    3.2152317E-02
 -8.2700001E-04    3.0955102E-02
 -8.2650001E-04    2.8671967E-02
 -8.2600000E-04    2.5470588E-02
 -8.2550000E-04    2.1570290E-02
 -8.2500000E-04    1.7228488E-02
 -8.2449999E-04    1.2724974E-02
 -8.2399999E-04    8.3450349E-03
 -8.2349998E-04    4.3624681E-03
 -8.2299998E-04    1.0235228E-03
 -8.2249998E-04   -1.4672598E-03
 -8.2199997E-04   -2.9584600E-03
 -8.2150003E-04   -3.3598146E-03
 -8.2100002E-04   -2.6464453E-03
 -8.2050002E-04   -8.5911033E-04
 -8.2000002E-04    1.8994352E-03
 -8.1950001E-04    5.4716407E-03
 -8.1900001E-04    9.6553806E-03
 -8.1850000E-04    1.4216479E-02
 -8.1800000E-04    1.8902691E-02
 -8.1750000E-04    2.3458265E-02
 -8.1699999E-04    2.7638160E-02
 -8.1649999E-04    3.1221127E-02
 -8.1599999E-04    3.4020893E-02
 -8.1549998E-04    3.5894930E-02
 -8.1499998E-04    3.6750413E-02
 -8.1449997E-04    3.6547210E-02
 -8.1400003E-04    3.5297927E-02
 -8.1350002E-04    3.3065230E-02
 -8.1300002E-04    2.9956810E-02
 -8.1250002E-04    2.6118457E-02
 -8.1200001E-04    2.1725832E-02
 -8.1150001E-04    1.6975457E-02
 -8.1100001E-04    1.2075527E-02
 -8.1050000E-04    7.2369734E-03
 -8.1000000E-04    2.6652168E-03
 -8.0949999E-04   -1.4471493E-03
 -8.0899999E-04   -4.9265581E-03
 -8.0849999E-04   -7.6235216E-03
 -8.0799998E-04   -9.4165709E-03
 -8.0749998E-04   -1.0215200E-02
 -8.0699997E-04   -9.9619646E-03
 -8.0649997E-04   -8.6338846E-03
 -8.0600003E-04   -6.2432634E-03
 -8.0550002E-04   -2.8380067E-03
 -8.0500002E-04    1.4985853E-03
 -8.0450001E-04    6.6486122E-03
 -8.0400001E-04    1.2461122E-02
 -8.0350001E-04    1.8754601E-02
 -8.0300000E-04    2.5320638E-02
 -8.0250000E-04    3.1928930E-02
 -8.0200000E-04    3.8333852E-02
 -8.0149999E-04    4.4282548E-02
 -8.0099999E-04    4.9524523E-02
 -8.0049998E-04    5.3822521E-02
 -7.9999998E-04    5.6964193E-02
 -7.9949998E-04    5.8774140E-02
 -7.9899997E-04    5.9125505E-02
 -7.9850003E-04    5.7950426E-02
 -7.9800002E-04    5.5248428E-02
 -7.9750002E-04    5.1092025E-02
 -7.9700002E-04    4.5628764E-02
 -7.9650001E-04    3.9079152E-02
 -7.9600001E-04    3.1730164E-02
 -7.9550000E-04    2.3924278E-02
 -7.9500000E-04    1.6044278E-02
 -7.9450000E-04    8.4944554E-03
 -7.9399999E-04    1.6790902E-03
 -7.9349999E-04   -4.0206173E-03
 -7.9299998E-04   -8.2697738E-03
 -7.9249998E-04   -1.0801681E-02
 -7.9199998E-04   -1.1436861E-02
 -7.9149997E-04   -1.0097797E-02
 -7.9100003E-04   -6.8181544E-03
 -7.9050002E-04   -1.7455583E-03
 -7.9000002E-04    4.8626047E-03
 -7.8950002E-04    1.2650456E-02
 -7.8900001E-04    2.1181569E-02
 -7.8850001E-04    2.9962709E-02
 -7.8800000E-04    3.8472109E-02
 -7.8750000E-04    4.6190530E-02
 -7.8700000E-04    5.2633278E-02
 -7.8649999E-04    5.7381026E-02
 -7.8599999E-04    6.0107417E-02
 -7.8549999E-04    6.0601566E-02
 -7.8499998E-04    5.8783762E-02
 -7.8449998E-04    5.4713257E-02
 -7.8399997E-04    4.8587378E-02
 -7.8350003E-04    4.0731844E-02
 -7.8300002E-04    3.1582739E-02
 -7.8250002E-04    2.1661263E-02
 -7.8200002E-04    1.1542649E-02
 -7.8150001E-04    1.8213569E-03
 -7.8100001E-04   -6.9252825E-03
 -7.8050001E-04   -1.4172598E-02
 -7.8000000E-04   -1.9480927E-02
 -7.7950000E-04   -2.2522651E-02
 -7.7899999E-04   -2.3102108E-02
 -7.7849999E-04   -2.1167101E-02
 -7.7799999E-04   -1.6811199E-02
 -7.7749998E-04   -1.0266758E-02
 -7.7699998E-04   -1.8891431E-03
 -7.7649998E-04    7.8667253E-03
 -7.7599997E-04    1.8475890E-02
 -7.7550003E-04    2.9376905E-02
 -7.7500002E-04    4.0007111E-02
 -7.7450002E-04    4.9837269E-02
 -7.7400001E-04    5.8403242E-02
 -7.7350001E-04    6.5332636E-02
 -7.7300001E-04    7.0364684E-02
 -7.7250000E-04    7.3362291E-02
 -7.7200000E-04    7.4315347E-02
 -7.7150000E-04    7.3335633E-02
 -7.7099999E-04    7.0643649E-02
 -7.7049999E-04    6.6548541E-02
 -7.6999998E-04    6.1422873E-02
 -7.6949998E-04    5.5673975E-02
 -7.6899998E-04    4.9714137E-02
 -7.6849997E-04    4.3931723E-02
 -7.6800003E-04    3.8665291E-02
 -7.6750002E-04    3.4182459E-02
 -7.6700002E-04    3.0664889E-02
 -7.6650002E-04    2.8200302E-02
 -7.6600001E-04    2.6781864E-02
 -7.6550001E-04    2.6314765E-02
 -7.6500000E-04    2.6629237E-02
 -7.6450000E-04    2.7498888E-02
 -7.6400000E-04    2.8662760E-02
 -7.6349999E-04    2.9849377E-02
 -7.6299999E-04    3.0800860E-02
 -7.6249999E-04    3.1295322E-02
 -7.6199998E-04    3.1165805E-02
 -7.6149998E-04    3.0314472E-02
 -7.6099997E-04    2.8720971E-02
 -7.6050003E-04    2.6444519E-02
 -7.6000002E-04    2.3619598E-02
 -7.5950002E-04    2.0445704E-02
 -7.5900002E-04    1.7172024E-02
 -7.5850001E-04    1.4078194E-02
 -7.5800001E-04    1.1452701E-02
 -7.5750001E-04    9.5704868E-03
 -7.5700000E-04    8.6714709E-03
 -7.5650000E-04    8.9415275E-03
 -7.5599999E-04    1.0497320E-02
 -7.5549999E-04    1.3376039E-02
 -7.5499999E-04    1.7530773E-02
 -7.5449998E-04    2.2831813E-02
 -7.5399998E-04    2.9073739E-02
 -7.5349997E-04    3.5987820E-02
 -7.5299997E-04    4.3258760E-02
 -7.5250003E-04    5.0544690E-02
 -7.5200002E-04    5.7498936E-02
 -7.5150002E-04    6.3792154E-02
 -7.5100001E-04    6.9133230E-02
 -7.5050001E-04    7.3287681E-02
 -7.5000001E-04    7.6092191E-02
 -7.4950000E-04    7.7464461E-02
 -7.4900000E-04    7.7407740E-02
 -7.4850000E-04    7.6009691E-02
 -7.4799999E-04    7.3435821E-02
 -7.4749999E-04    6.9917932E-02
 -7.4699998E-04    6.5738358E-02
 -7.4649998E-04    6.1211046E-02
 -7.4599998E-04    5.6660838E-02