 -1.2000001E-03    1.0000000E-24
 -1.1995001E-03    1.0000000E-24
 -1.1990000E-03    1.0000000E-24
 -1.1985000E-03    1.0000000E-24
 -1.1980000E-03    1.0000000E-24
 -1.1975000E-03    1.0000000E-24
 -1.1970000E-03    1.0000000E-24
 -1.1965000E-03    1.0000000E-24
 -1.1960000E-03    1.0000001E-24
 -1.1955000E-03    1.0000001E-24
 -1.1950000E-03    1.0000001E-24
 -1.1945000E-03    1.0000001E-24
 -1.1940000E-03    1.0000001E-24
 -1.1935000E-03    1.0000001E-24
 -1.1930000E-03    1.0000001E-24
 -1.1925000E-03    1.0000001E-24
 -1.1920000E-03    1.0000001E-24
 -1.1915000E-03    1.0000001E-24
 -1.1910000E-03    1.0000001E-24
 -1.1905000E-03    1.0000001E-24
 -1.1900000E-03    1.0000002E-24
 -1.1895000E-03    1.0000004E-24
 -1.1890000E-03    1.0000011E-24
 -1.1885000E-03    1.0000039E-24
 -1.1880000E-03    1.0000133E-24
 -1.1875000E-03    1.0000439E-24
 -1.1870000E-03    1.0001368E-24
 -1.1865000E-03    1.0004015E-24
 -1.1860000E-03    1.0011157E-24
 -1.1854999E-03    1.0029430E-24
 -1.1849999E-03    1.0073931E-24
 -1.1845001E-03    1.0177388E-24
 -1.1840001E-03    1.0407484E-24
 -1.1835000E-03    1.0897925E-24
 -1.1830000E-03    1.1901045E-24
 -1.1825000E-03    1.3871399E-24
 -1.1820000E-03    1.7588987E-24
 -1.1815000E-03    2.4323558E-24
 -1.1810000E-03    3.6021724E-24
 -1.1805000E-03    5.5455983E-24
 -1.1800000E-03    8.6195778E-24
 -1.1795000E-03    1.3212746E-23
 -1.1790000E-03    1.9604516E-23
 -1.1785000E-03    2.7654516E-23
 -1.1780000E-03    3.6208728E-23
 -1.1775000E-03    4.2067671E-23
 -1.1770000E-03    3.8326615E-23
 -1.1765000E-03    1.1887436E-23
 -1.1760000E-03   -6.0013123E-23
 -1.1755000E-03   -2.1426558E-22
 -1.1750000E-03   -5.0703440E-22
 -1.1745000E-03   -1.0187298E-21
 -1.1740000E-03   -1.8570730E-21
 -1.1735000E-03   -3.1552754E-21
 -1.1730000E-03   -5.0607104E-21
 -1.1725000E-03   -7.7075114E-21
 -1.1720000E-03   -1.1164538E-20
 -1.1715000E-03   -1.5348522E-20
 -1.1710000E-03   -1.9891844E-20
 -1.1704999E-03   -2.3956185E-20
 -1.1699999E-03   -2.5988971E-20
 -1.1695001E-03   -2.3430603E-20
 -1.1690001E-03   -1.2398831E-20
 -1.1685000E-03    1.2596163E-20
 -1.1680000E-03    5.8815689E-20
 -1.1675000E-03    1.3519991E-19
 -1.1670000E-03    2.5183260E-19
 -1.1665000E-03    4.1872860E-19
 -1.1660000E-03    6.4367313E-19
 -1.1655000E-03    9.2883780E-19
 -1.1650000E-03    1.2659416E-18
 -1.1645000E-03    1.6298503E-18
 -1.1640000E-03    1.9707346E-18
 -1.1635000E-03    2.2052658E-18
 -1.1630000E-03    2.2078303E-18
 -1.1625000E-03    1.8033962E-18
 -1.1620000E-03    7.6442852E-19
 -1.1615000E-03   -1.1849344E-18
 -1.1610000E-03   -4.3534851E-18
 -1.1605000E-03   -9.0518581E-18
 -1.1600000E-03   -1.5541227E-17
 -1.1595000E-03   -2.3957953E-17
 -1.1590000E-03   -3.4212121E-17
 -1.1585000E-03   -4.5860895E-17
 -1.1580000E-03   -5.7962385E-17
 -1.1575000E-03   -6.8921900E-17
 -1.1570000E-03   -7.6350359E-17
 -1.1565000E-03   -7.6963716E-17
 -1.1560000E-03   -6.6561252E-17
 -1.1555000E-03   -4.0128993E-17
 -1.1549999E-03    7.8799607E-18
 -1.1544999E-03    8.3036235E-17
 -1.1540001E-03    1.9015100E-16
 -1.1535001E-03    3.3219078E-16
 -1.1530000E-03    5.0889231E-16
 -1.1525000E-03    7.1512276E-16
 -1.1520000E-03    9.3908775E-16
 -1.1515000E-03    1.1605623E-15
 -1.1510000E-03    1.3493951E-15
 -1.1505000E-03    1.4646176E-15
 -1.1500000E-03    1.4545604E-15
 -1.1495000E-03    1.2584208E-15
 -1.1490000E-03    8.0973639E-16
 -1.1485000E-03    4.2164615E-17
 -1.1480000E-03   -1.1021604E-15
 -1.1475000E-03   -2.6616363E-15
 -1.1470000E-03   -4.6418244E-15
 -1.1465000E-03   -7.0003766E-15
 -1.1460000E-03   -9.6314126E-15
 -1.1455000E-03   -1.2351052E-14
 -1.1450000E-03   -1.4886335E-14
 -1.1445000E-03   -1.6870240E-14
 -1.1440000E-03   -1.7845836E-14
 -1.1435000E-03   -1.7282611E-14
 -1.1430000E-03   -1.4607825E-14
 -1.1425000E-03   -9.2548700E-15
 -1.1420000E-03   -7.2947012E-16
 -1.1415000E-03    1.1307353E-14
 -1.1410000E-03    2.6942888E-14
 -1.1405000E-03    4.5909094E-14
 -1.1399999E-03    6.7480872E-14
 -1.1394999E-03    9.0388390E-14
 -1.1390001E-03    1.1275825E-13
 -1.1385001E-03    1.3209997E-13
 -1.1380001E-03    1.4535473E-13
 -1.1375000E-03    1.4902218E-13
 -1.1370000E-03    1.3937708E-13
 -1.1365000E-03    1.1278217E-13
 -1.1360000E-03    6.6094211E-14
 -1.1355000E-03   -2.8502009E-15
 -1.1350000E-03   -9.4696129E-14
 -1.1345000E-03   -2.0801969E-13
 -1.1340000E-03   -3.3882014E-13
 -1.1335000E-03   -4.8012126E-13
 -1.1330000E-03   -6.2175655E-13
 -1.1325000E-03   -7.5041590E-13
 -1.1320000E-03   -8.5002507E-13
 -1.1315000E-03   -9.0251661E-13
 -1.1310000E-03   -8.8902356E-13
 -1.1305000E-03   -7.9149420E-13
 -1.1300000E-03   -5.9468088E-13
 -1.1295000E-03   -2.8840249E-13
 -1.1290000E-03    1.3007323E-13
 -1.1285000E-03    6.5373656E-13
 -1.1280000E-03    1.2638868E-12
 -1.1275000E-03    1.9288145E-12
 -1.1270000E-03    2.6034097E-12
 -1.1265000E-03    3.2299738E-12
 -1.1260000E-03    3.7404628E-12
 -1.1255000E-03    4.0602899E-12
 -1.1250000E-03    4.1137068E-12
 -1.1244999E-03    3.8306112E-12
 -1.1239999E-03    3.1544539E-12
 -1.1235001E-03    2.0507346E-12
 -1.1230001E-03    5.1538418E-13
 -1.1225000E-03   -1.4178103E-12
 -1.1220000E-03   -3.6716867E-12
 -1.1215000E-03   -6.1230682E-12
 -1.1210000E-03   -8.6039101E-12
 -1.1205000E-03   -1.0906950E-11
 -1.1200000E-03   -1.2796323E-11
 -1.1195000E-03   -1.4023153E-11
 -1.1190000E-03   -1.4345693E-11
 -1.1185000E-03   -1.3553006E-11
 -1.1180000E-03   -1.1490633E-11
 -1.1175000E-03   -8.0861533E-12
 -1.1170000E-03   -3.3721370E-12
 -1.1165000E-03    2.4962690E-12
 -1.1160000E-03    9.2319138E-12
 -1.1155000E-03    1.6416897E-11
 -1.1150000E-03    2.3516473E-11
 -1.1145000E-03    2.9906702E-11
 -1.1140000E-03    3.4915761E-11
 -1.1135000E-03    3.7877510E-11
 -1.1130000E-03    3.8194298E-11
 -1.1125000E-03    3.5404610E-11
 -1.1120000E-03    2.9249804E-11
 -1.1115000E-03    1.9733160E-11
 -1.1110000E-03    7.1640363E-12
 -1.1105000E-03   -7.8198819E-12
 -1.1100000E-03   -2.4258401E-11
 -1.1094999E-03   -4.0907035E-11
 -1.1089999E-03   -5.6309513E-11
 -1.1084999E-03   -6.8903279E-11
 -1.1080001E-03   -7.7153145E-11
 -1.1075001E-03   -7.9704389E-11
 -1.1070000E-03   -7.5543280E-11
 -1.1065000E-03   -6.4149915E-11
 -1.1060000E-03   -4.5626541E-11
 -1.1055000E-03   -2.0784071E-11
 -1.1050000E-03    8.8290824E-12
 -1.1045000E-03    4.0968666E-11
 -1.1040000E-03    7.2814206E-11
 -1.1035000E-03    1.0116742E-10
 -1.1030000E-03    1.2272201E-10
 -1.1025000E-03    1.3438874E-10
 -1.1020000E-03    1.3365098E-10
 -1.1015000E-03    1.1891886E-10
 -1.1010000E-03    8.9843973E-11
 -1.1005000E-03    4.7555258E-11
 -1.1000000E-03   -5.2227684E-12
 -1.0995000E-03   -6.4201769E-11
 -1.0990000E-03   -1.2373387E-10
 -1.0985000E-03   -1.7719617E-10
 -1.0980000E-03   -2.1754590E-10
 -1.0975000E-03   -2.3801602E-10
 -1.0970000E-03   -2.3290209E-10
 -1.0965000E-03   -1.9837167E-10
 -1.0960000E-03   -1.3321415E-10
 -1.0955000E-03   -3.9440427E-11
 -1.0950000E-03    7.7357912E-11
 -1.0945000E-03    2.0797050E-10
 -1.0939999E-03    3.3991199E-10
 -1.0934999E-03    4.5817866E-10
 -1.0930001E-03    5.4641081E-10
 -1.0925001E-03    5.8841015E-10
 -1.0920000E-03    5.6991484E-10
 -1.0915000E-03    4.8049137E-10
 -1.0910000E-03    3.1536618E-10
 -1.0905000E-03    7.6995035E-11
 -1.0900000E-03   -2.2383925E-10
 -1.0895000E-03   -5.6759669E-10
 -1.0890000E-03   -9.2637920E-10
 -1.0885000E-03   -1.2652615E-09
 -1.0880000E-03   -1.5445790E-09
 -1.0875000E-03   -1.7231072E-09
 -1.0870000E-03   -1.7619574E-09
 -1.0865000E-03   -1.6289240E-09
 -1.0860000E-03   -1.3029179E-09
 -1.0855000E-03   -7.7805962E-10
 -1.0850000E-03   -6.6966759E-11
 -1.0845000E-03    7.9722134E-10
 -1.0840000E-03    1.7604905E-09
 -1.0835000E-03    2.7495721E-09
 -1.0830000E-03    3.6756991E-09
 -1.0825000E-03    4.4404649E-09
 -1.0820000E-03    4.9435527E-09
 -1.0815000E-03    5.0918758E-09
 -1.0810000E-03    4.8094648E-09
 -1.0805000E-03    4.0472705E-09
 -1.0800000E-03    2.7919365E-09
 -1.0795000E-03    1.0725497E-09
 -1.0790000E-03   -1.0355581E-09
 -1.0784999E-03   -3.4107388E-09
 -1.0779999E-03   -5.8892202E-09
 -1.0775001E-03   -8.2737577E-09
 -1.0770001E-03   -1.0346545E-08
 -1.0765000E-03   -1.1885753E-08
 -1.0760000E-03   -1.2684633E-08
 -1.0755000E-03   -1.2571745E-08
 -1.0750000E-03   -1.1430581E-08
 -1.0745000E-03   -9.2167092E-09
 -1.0740000E-03   -5.9705254E-09
 -1.0735000E-03   -1.8239509E-09
 -1.0730000E-03    3.0002698E-09
 -1.0725000E-03    8.1974356E-09
 -1.0720000E-03    1.3398013E-08
 -1.0715000E-03    1.8192340E-08
 -1.0710000E-03    2.2161435E-08
 -1.0705000E-03    2.4911699E-08
 -1.0700000E-03    2.6110696E-08
 -1.0695000E-03    2.5520816E-08
 -1.0690000E-03    2.3027505E-08
 -1.0685000E-03    1.8658941E-08
 -1.0680000E-03    1.2594548E-08
 -1.0675000E-03    5.1606621E-09
 -1.0670000E-03   -3.1873668E-09
 -1.0665000E-03   -1.1895932E-08
 -1.0660000E-03   -2.0354859E-08
 -1.0655000E-03   -2.7946747E-08
 -1.0650000E-03   -3.4099699E-08
 -1.0645000E-03   -3.8338406E-08
 -1.0640000E-03   -4.0328352E-08
 -1.0634999E-03   -3.9908187E-08
 -1.0629999E-03   -3.7106123E-08
 -1.0625001E-03   -3.2137642E-08
 -1.0620001E-03   -2.5383638E-08
 -1.0615001E-03   -1.7350182E-08
 -1.0610000E-03   -8.6133189E-09
 -1.0605000E-03    2.4559241E-10
 -1.0600000E-03    8.7069019E-09
 -1.0595000E-03    1.6373885E-08
 -1.0590000E-03    2.3019830E-08
 -1.0585000E-03    2.8613428E-08
 -1.0580000E-03    3.3316720E-08
 -1.0575000E-03    3.7452484E-08
 -1.0570000E-03    4.1441545E-08
 -1.0565000E-03    4.5714255E-08
 -1.0560000E-03    5.0604488E-08
 -1.0555000E-03    5.6238072E-08
 -1.0550000E-03    6.2430274E-08
 -1.0545000E-03    6.8608429E-08
 -1.0540000E-03    7.3775553E-08
 -1.0535000E-03    7.6528501E-08
 -1.0530000E-03    7.5140242E-08
 -1.0525000E-03    6.7709621E-08
 -1.0520000E-03    5.2374563E-08
 -1.0515000E-03    2.7576451E-08
 -1.0510000E-03   -7.6452800E-09
 -1.0505000E-03   -5.3356679E-08
 -1.0500000E-03   -1.0846526E-07
 -1.0495000E-03   -1.7052572E-07
 -1.0490000E-03   -2.3565232E-07
 -1.0485000E-03   -2.9857020E-07
 -1.0479999E-03   -3.5282906E-07
 -1.0474999E-03   -3.9119027E-07
 -1.0470001E-03   -4.0618107E-07
 -1.0465001E-03   -3.9079208E-07
 -1.0460000E-03   -3.3927466E-07
 -1.0455000E-03   -2.4797617E-07
 -1.0450000E-03   -1.1613663E-07
 -1.0445000E-03    5.3439582E-08
 -1.0440000E-03    2.5392669E-07
 -1.0435000E-03    4.7431837E-07
 -1.0430000E-03    6.9963590E-07
 -1.0425000E-03    9.1154863E-07
 -1.0420000E-03    1.0894191E-06
 -1.0415000E-03    1.2117487E-06
 -1.0410000E-03    1.2579550E-06
 -1.0405000E-03    1.2103709E-06
 -1.0400000E-03    1.0563191E-06
 -1.0395000E-03    7.9008009E-07
 -1.0390000E-03    4.1456084E-07
 -1.0385000E-03   -5.7536813E-08
 -1.0380000E-03   -6.0323123E-07
 -1.0375000E-03   -1.1896069E-06
 -1.0370000E-03   -1.7750870E-06
 -1.0365000E-03   -2.3116565E-06
 -1.0360000E-03   -2.7479805E-06
 -1.0355000E-03   -3.0332701E-06
 -1.0350000E-03   -3.1216666E-06
 -1.0345000E-03   -2.9768298E-06
 -1.0340000E-03   -2.5763636E-06
 -1.0335000E-03   -1.9156673E-06
 -1.0329999E-03   -1.0108062E-06
 -1.0324999E-03    9.9982010E-08
 -1.0319999E-03    1.3564511E-06
 -1.0315001E-03    2.6783878E-06
 -1.0310001E-03    3.9695974E-06
 -1.0305000E-03    5.1237394E-06
 -1.0300000E-03    6.0317557E-06
 -1.0295000E-03    6.5904551E-06
 -1.0290000E-03    6.7116707E-06
 -1.0285000E-03    6.3312978E-06
 -1.0280000E-03    5.4174211E-06
 -1.0275000E-03    3.9767642E-06
 -1.0270000E-03    2.0587129E-06
 -1.0265000E-03   -2.4369612E-07
 -1.0260000E-03   -2.7962467E-06
 -1.0255000E-03   -5.4296556E-06
 -1.0250000E-03   -7.9492238E-06
 -1.0245000E-03   -1.0147610E-05
 -1.0240000E-03   -1.1820007E-05
 -1.0235000E-03   -1.2780744E-05
 -1.0230000E-03   -1.2880065E-05
 -1.0225000E-03   -1.2019765E-05
 -1.0220000E-03   -1.0166260E-05
 -1.0215000E-03   -7.3597898E-06
 -1.0210000E-03   -3.7185946E-06
 -1.0205000E-03    5.6273683E-07
 -1.0200000E-03    5.2211876E-06
 -1.0195000E-03    9.9394529E-06
 -1.0190000E-03    1.4365726E-05
 -1.0185000E-03    1.8138055E-05
 -1.0180000E-03    2.0911710E-05
 -1.0174999E-03    2.2387641E-05
 -1.0169999E-03    2.2339813E-05
 -1.0165001E-03    2.0639100E-05
 -1.0160001E-03    1.7271608E-05
 -1.0155000E-03    1.2349388E-05
 -1.0150000E-03    6.1121314E-06
 -1.0145000E-03   -1.0810600E-06
 -1.0140000E-03   -8.7699382E-06
 -1.0135000E-03   -1.6420745E-05
 -1.0130000E-03   -2.3461744E-05
 -1.0125000E-03   -2.9324394E-05
 -1.0120000E-03   -3.3487322E-05
 -1.0115000E-03   -3.5519788E-05
 -1.0110000E-03   -3.5121160E-05
 -1.0105000E-03   -3.2152991E-05
 -1.0100000E-03   -2.6660602E-05
 -1.0095000E-03   -1.8881819E-05
 -1.0090000E-03   -9.2412629E-06
 -1.0085000E-03    1.6702613E-06
 -1.0080000E-03    1.3130584E-05
 -1.0075000E-03    2.4333336E-05
 -1.0070000E-03    3.4444452E-05
 -1.0065000E-03    4.2664127E-05
 -1.0060000E-03    4.8289578E-05
 -1.0055000E-03    5.0773768E-05
 -1.0050000E-03    4.9775150E-05
 -1.0045000E-03    4.5194076E-05
 -1.0040000E-03    3.7192262E-05
 -1.0035000E-03    2.6192891E-05
 -1.0030000E-03    1.2860489E-05
 -1.0025000E-03   -1.9389192E-06
 -1.0019999E-03   -1.7195020E-05
 -1.0014999E-03   -3.1824078E-05
 -1.0010001E-03   -4.4748394E-05
 -1.0005001E-03   -5.4978420E-05
 -1.0000000E-03   -6.1691047E-05
 -9.9950004E-04   -6.4297754E-05
 -9.9900004E-04   -6.2496736E-05
 -9.9850004E-04   -5.6304321E-05
 -9.9800003E-04   -4.6062414E-05
 -9.9750003E-04   -3.2420638E-05
 -9.9700002E-04   -1.6293809E-05
 -9.9650002E-04    1.2025305E-06
 -9.9600002E-04    1.8833929E-05
 -9.9550001E-04    3.5339970E-05
 -9.9500001E-04    4.9531074E-05
 -9.9450001E-04    6.0381299E-05
 -9.9400000E-04    6.7109489E-05
 -9.9350000E-04    6.9241752E-05
 -9.9299999E-04    6.6649896E-05
 -9.9249999E-04    5.9562088E-05
 -9.9199999E-04    4.8544458E-05
 -9.9149998E-04    3.4454875E-05
 -9.9099998E-04    1.8372391E-05
 -9.9049998E-04    1.5081713E-06
 -9.8999997E-04   -1.4894616E-05
 -9.8949997E-04   -2.9663322E-05
 -9.8899996E-04   -4.1791762E-05
 -9.8849996E-04   -5.0521070E-05
 -9.8799996E-04   -5.5398094E-05
 -9.8749995E-04   -5.6305907E-05
 -9.8699995E-04   -5.3463566E-05
 -9.8649994E-04   -4.7394849E-05
 -9.8600006E-04   -3.8868835E-05
 -9.8550005E-04   -2.8817753E-05
 -9.8500005E-04   -1.8239887E-05
 -9.8450005E-04   -8.0969130E-06
 -9.8400004E-04    7.8416946E-07
 -9.8350004E-04    7.7945169E-06
 -9.8300003E-04    1.2603528E-05
 -9.8250003E-04    1.5188756E-05
 -9.8200003E-04    1.5831718E-05
 -9.8150002E-04    1.5078941E-05
 -9.8100002E-04    1.3671196E-05
 -9.8050002E-04    1.2447201E-05
 -9.8000001E-04    1.2231106E-05
 -9.7950001E-04    1.3715249E-05
 -9.7900000E-04    1.7350812E-05
 -9.7850000E-04    2.3259010E-05
 -9.7800000E-04    3.1174135E-05
 -9.7749999E-04    4.0427261E-05
 -9.7699999E-04    4.9975904E-05
 -9.7649998E-04    5.8480455E-05
 -9.7599998E-04    6.4423701E-05
 -9.7549998E-04    6.6264809E-05
 -9.7499997E-04    6.2615087E-05
 -9.7450003E-04    5.2419415E-05
 -9.7400002E-04    3.5125362E-05
 -9.7350002E-04    1.0821454E-05
 -9.7300002E-04   -1.9672505E-05
 -9.7250001E-04   -5.4777145E-05
 -9.7200001E-04   -9.2196678E-05
 -9.7150001E-04   -1.2903697E-04
 -9.7100000E-04   -1.6199521E-04
 -9.7050000E-04   -1.8761100E-04
 -9.6999999E-04   -2.0256186E-04
 -9.6949999E-04   -2.0398051E-04
 -9.6899999E-04   -1.8976763E-04
 -9.6849998E-04   -1.5887093E-04
 -9.6799998E-04   -1.1150284E-04
 -9.6749997E-04   -4.9271388E-05
 -9.6700003E-04    2.4795771E-05
 -9.6650003E-04    1.0634605E-04
 -9.6600002E-04    1.8991862E-04
 -9.6550002E-04    2.6927562E-04
 -9.6500001E-04    3.3783042E-04
 -9.6450001E-04    3.8914522E-04
 -9.6400001E-04    4.1746310E-04
 -9.6350000E-04    4.1823284E-04
 -9.6300000E-04    3.8858320E-04
 -9.6249999E-04    3.2770337E-04
 -9.6199999E-04    2.3709175E-04
 -9.6149999E-04    1.2064171E-04
 -9.6099998E-04   -1.5454174E-05
 -9.6049998E-04   -1.6298810E-04
 -9.5999998E-04   -3.1220043E-04
 -9.5949997E-04   -4.5239858E-04
 -9.5900003E-04   -5.7269452E-04
 -9.5850002E-04   -6.6281029E-04
 -9.5800002E-04   -7.1389426E-04
 -9.5750001E-04   -7.1928528E-04
 -9.5700001E-04   -6.7516201E-04
 -9.5650001E-04   -5.8102084E-04
 -9.5600000E-04   -4.3993487E-04
 -9.5550000E-04   -2.5856064E-04
 -9.5500000E-04   -4.6878326E-05
 -9.5449999E-04    1.8233132E-04
 -9.5399999E-04    4.1424742E-04
 -9.5349998E-04    6.3296338E-04
 -9.5299998E-04    8.2257343E-04
 -9.5249998E-04    9.6831692E-04
 -9.5199997E-04    1.0576983E-03
 -9.5150003E-04    1.0814975E-03
 -9.5100002E-04    1.0345927E-03
 -9.5050002E-04    9.1652339E-04
 -9.5000002E-04    7.3174277E-04
 -9.4950001E-04    4.8952707E-04
 -9.4900001E-04    2.0353364E-04
 -9.4850000E-04   -1.0897316E-04
 -9.4800000E-04   -4.2818542E-04
 -9.4750000E-04   -7.3303765E-04
 -9.4699999E-04   -1.0026295E-03
 -9.4649999E-04   -1.2176879E-03
 -9.4599999E-04   -1.3619626E-03
 -9.4549998E-04   -1.4234541E-03
 -9.4499998E-04   -1.3953786E-03
 -9.4449997E-04   -1.2767938E-03
 -9.4400003E-04   -1.0728306E-03
 -9.4350002E-04   -7.9450523E-04
 -9.4300002E-04   -4.5811085E-04
 -9.4250002E-04   -8.4226973E-05
 -9.4200001E-04    3.0359501E-04
 -9.4150001E-04    6.8038126E-04
 -9.4100001E-04    1.0214150E-03
 -9.4050000E-04    1.3039282E-03
 -9.4000000E-04    1.5086856E-03
 -9.3949999E-04    1.6213470E-03
 -9.3899999E-04    1.6335073E-03
 -9.3849999E-04    1.5433358E-03
 -9.3799998E-04    1.3557666E-03
 -9.3749998E-04    1.0822183E-03
 -9.3699998E-04    7.3986343E-04
 -9.3649997E-04    3.5049138E-04
 -9.3600003E-04   -6.0954073E-05
 -9.3550002E-04   -4.6806069E-04
 -9.3500002E-04   -8.4473914E-04
 -9.3450001E-04   -1.1669917E-03
 -9.3400001E-04   -1.4145323E-03
 -9.3350001E-04   -1.5721439E-03
 -9.3300000E-04   -1.6306748E-03
 -9.3250000E-04   -1.5876064E-03
 -9.3200000E-04   -1.4471521E-03
 -9.3149999E-04   -1.2198855E-03
 -9.3099999E-04   -9.2192617E-04
 -9.3049998E-04   -5.7374808E-04
 -9.2999998E-04   -1.9870000E-04
 -9.2949998E-04    1.7865103E-04
 -9.2899997E-04    5.3423038E-04
 -9.2850003E-04    8.4609439E-04
 -9.2800002E-04    1.0958796E-03
 -9.2750002E-04    1.2699579E-03
 -9.2700002E-04    1.3602213E-03
 -9.2650001E-04    1.3644431E-03
 -9.2600001E-04    1.2862029E-03
 -9.2550000E-04    1.1343909E-03
 -9.2500000E-04    9.2234084E-04
 -9.2450000E-04    6.6666986E-04
 -9.2399999E-04    3.8592532E-04
 -9.2349999E-04    9.9148601E-05
 -9.2299999E-04   -1.7552705E-04
 -9.2249998E-04   -4.2213415E-04
 -9.2199998E-04   -6.2788907E-04
 -9.2149997E-04   -7.8389660E-04
 -9.2100003E-04   -8.8549609E-04
 -9.2050002E-04   -9.3223574E-04
 -9.2000002E-04   -9.2749397E-04
 -9.1950002E-04   -8.7779766E-04
 -9.1900001E-04   -7.9191237E-04
 -9.1850001E-04   -6.7979866E-04
 -9.1800001E-04   -5.5154023E-04
 -9.1750000E-04   -4.1634848E-04
 -9.1700000E-04   -2.8174135E-04
 -9.1649999E-04   -1.5297456E-04
 -9.1599999E-04   -3.2779968E-05
 -9.1549999E-04    7.8566940E-05
 -9.1499998E-04    1.8286012E-04
 -9.1449998E-04    2.8330070E-04
 -9.1399997E-04    3.8363176E-04
 -9.1349997E-04    4.8716768E-04
 -9.1300003E-04    5.9582840E-04
 -9.1250002E-04    7.0929521E-04
 -9.1200002E-04    8.2439667E-04
 -9.1150001E-04    9.3481678E-04
 -9.1100001E-04    1.0311884E-03
 -9.1050001E-04    1.1016012E-03
 -9.1000000E-04    1.1325119E-03
 -9.0950000E-04    1.1100020E-03
 -9.0899999E-04    1.0212922E-03
 -9.0849999E-04    8.5638126E-04
 -9.0799999E-04    6.0966401E-04
 -9.0749998E-04    2.8135887E-04
 -9.0699998E-04   -1.2141262E-04
 -9.0649998E-04   -5.8404059E-04
 -9.0599997E-04   -1.0844485E-03
 -9.0550003E-04   -1.5937912E-03
 -9.0500002E-04   -2.0778435E-03
 -9.0450002E-04   -2.4990344E-03
 -9.0400001E-04   -2.8190252E-03
 -9.0350001E-04   -3.0016641E-03
 -9.0300001E-04   -3.0161135E-03
 -9.0250000E-04   -2.8399031E-03
 -9.0200000E-04   -2.4616546E-03
 -9.0150000E-04   -1.8832192E-03
 -9.0099999E-04   -1.1210048E-03
 -9.0049999E-04   -2.0630415E-04
 -8.9999998E-04    8.1548572E-04
 -8.9949998E-04    1.8867970E-03
 -8.9899998E-04    2.9409255E-03
 -8.9849997E-04    3.9060242E-03
 -8.9800003E-04    4.7098314E-03
 -8.9750002E-04    5.2848319E-03
 -8.9700002E-04    5.5734944E-03
 -8.9650002E-04    5.5331960E-03
 -8.9600001E-04    5.1404443E-03
 -8.9550001E-04    4.3940232E-03
 -8.9500000E-04    3.3167619E-03
 -8.9450000E-04    1.9556920E-03
 -8.9400000E-04    3.8047202E-04
 -8.9349999E-04   -1.3199153E-03
 -8.9299999E-04   -3.0420707E-03
 -8.9249999E-04   -4.6744300E-03
 -8.9199998E-04   -6.1044917E-03
 -8.9149998E-04   -7.2265551E-03
 -8.9099997E-04   -7.9494417E-03
 -8.9050003E-04   -8.2036415E-03
 -8.9000002E-04   -7.9473332E-03
 -8.8950002E-04   -7.1708006E-03
 -8.8900002E-04   -5.8988226E-03
 -8.8850001E-04   -4.1907793E-03
 -8.8800001E-04   -2.1383406E-03
 -8.8750001E-04    1.3922065E-04
 -8.8700000E-04    2.5018619E-03
 -8.8650000E-04    4.7973795E-03
 -8.8599999E-04    6.8712588E-03
 -8.8549999E-04    8.5771289E-03
 -8.8499999E-04    9.7871069E-03
 -8.8449998E-04    1.0401307E-02
 -8.8399998E-04    1.0355801E-02
 -8.8349998E-04    9.6284198E-03
 -8.8299997E-04    8.2418928E-03
 -8.8250003E-04    6.2640146E-03
 -8.8200002E-04    3.8047063E-03
 -8.8150002E-04    1.0100739E-03
 -8.8100001E-04   -1.9462330E-03
 -8.8050001E-04   -4.8738527E-03
 -8.8000001E-04   -7.5780479E-03
 -8.7950000E-04   -9.8727401E-03
 -8.7900000E-04   -1.1593360E-02
 -8.7850000E-04   -1.2608608E-02
 -8.7799999E-04   -1.2830295E-02
 -8.7749999E-04   -1.2220501E-02
 -8.7699998E-04   -1.0795517E-02
 -8.7649998E-04   -8.6261742E-03
 -8.7599998E-04   -5.8344807E-03
 -8.7549997E-04   -2.5866795E-03
 -8.7500003E-04    9.1685285E-04
 -8.7450002E-04    4.4542663E-03
 -8.7400002E-04    7.7966205E-03
 -8.7350002E-04    1.0723052E-02
 -8.7300001E-04    1.3035678E-02
 -8.7250001E-04    1.4573239E-02
 -8.7200000E-04    1.5222476E-02
 -8.7150000E-04    1.4926472E-02
 -8.7100000E-04    1.3689290E-02
 -8.7049999E-04    1.1576567E-02
 -8.6999999E-04    8.7119490E-03
 -8.6949999E-04    5.2695605E-03
 -8.6899998E-04    1.4629734E-03
 -8.6849998E-04   -2.4685974E-03
 -8.6799997E-04   -6.2759691E-03
 -8.6750003E-04   -9.7164707E-03
 -8.6700002E-04   -1.2570097E-02
 -8.6650002E-04   -1.4654243E-02
 -8.6600002E-04   -1.5835978E-02
 -8.6550001E-04   -1.6041014E-02
 -8.6500001E-04   -1.5258740E-02
 -8.6450001E-04   -1.3542940E-02
 -8.6400000E-04   -1.1008157E-02
 -8.6350000E-04   -7.8219324E-03
 -8.6299999E-04   -4.1934415E-03
 -8.6249999E-04   -3.5932864E-04
 -8.6199999E-04    3.4322920E-03
 -8.6149998E-04    6.9385581E-03
 -8.6099998E-04    9.9381469E-03
 -8.6049997E-04    1.2245997E-02
 -8.5999997E-04    1.3725452E-02
 -8.5950003E-04    1.4297009E-02
 -8.5900002E-04    1.3943058E-02
 -8.5850002E-04    1.2708349E-02
 -8.5800001E-04    1.0696162E-02
 -8.5750001E-04    8.0604982E-03
 -8.5700001E-04    4.9948944E-03
 -8.5650000E-04    1.7186626E-03
 -8.5600000E-04   -1.5384235E-03
 -8.5549999E-04   -4.5519029E-03
 -8.5499999E-04   -7.1177408E-03
 -8.5449999E-04   -9.0657221E-03
 -8.5399998E-04   -1.0270196E-02
 -8.5349998E-04   -1.0657471E-02
 -8.5299998E-04   -1.0209380E-02
 -8.5249997E-04   -8.9628696E-03
 -8.5200003E-04   -7.0057088E-03
 -8.5150002E-04   -4.4687400E-03
 -8.5100002E-04   -1.5153241E-03
 -8.5050002E-04    1.6711699E-03
 -8.5000001E-04    4.9008601E-03
 -8.4950001E-04    7.9907943E-03
 -8.4900000E-04    1.0777345E-02
 -8.4850000E-04    1.3126655E-02
 -8.4800000E-04    1.4942427E-02
 -8.4749999E-04    1.6170546E-02
 -8.4699999E-04    1.6800310E-02
 -8.4649998E-04    1.6862316E-02
 -8.4599998E-04    1.6423291E-02
 -8.4549998E-04    1.5578439E-02
 -8.4499997E-04    1.4442013E-02
 -8.4450003E-04    1.3136989E-02
 -8.4400002E-04    1.1784728E-02
 -8.4350002E-04    1.0495520E-02
 -8.4300002E-04    9.3607884E-03
 -8.4250001E-04    8.4475502E-03
 -8.4200001E-04    7.7955588E-03
 -8.4150000E-04    7.4172323E-03
 -8.4100000E-04    7.3002973E-03
 -8.4050000E-04    7.4127540E-03
 -8.3999999E-04    7.7096103E-03
 -8.3949999E-04    8.1406347E-03
 -8.3899999E-04    8.6583160E-03
 -8.3849998E-04    9.2251692E-03
 -8.3799998E-04    9.8196166E-03
 -8.3749997E-04    1.0439789E-02
 -8.3700003E-04    1.1104797E-02
 -8.3650002E-04    1.1853272E-02
 -8.3600002E-04    1.2739233E-02
 -8.3550002E-04    1.3825610E-02
 -8.3500001E-04    1.5176023E-02
 -8.3450001E-04    1.6845567E-02
 -8.3400001E-04    1.8871535E-02
 -8.3350000E-04    2.1265062E-02
 -8.3300000E-04    2.4004592E-02
 -8.3249999E-04    2.7032005E-02
 -8.3199999E-04    3.0252015E-02
 -8.3149999E-04    3.3535168E-02
 -8.3099998E-04    3.6724474E-02
 -8.3049998E-04    3.9645396E-02
 -8.2999998E-04    4.2118516E-02
 -8.2949997E-04    4.3974034E-02
 -8.2900003E-04    4.5066901E-02
 -8.2850002E-04    4.5291390E-02
 -8.2800002E-04    4.4593725E-02
 -8.2750001E-04    4.2981643E-02
 -8.2700001E-04    4.0529739E-02
 -8.2650001E-04    3.7379939E-02
 -8.2600000E-04    3.3736639E-02
 -8.2550000E-04    2.9856564E-02
 -8.2500000E-04    2.6033755E-02
 -8.2449999E-04    2.2580599E-02
 -8.2399999E-04    1.9806098E-02
 -8.2349998E-04    1.7992942E-02
 -8.2299998E-04    1.7375045E-02
 -8.2249998E-04    1.8117346E-02
 -8.2199997E-04    2.0299546E-02
 -8.2150003E-04    2.3905203E-02
 -8.2100002E-04    2.8817352E-02
 -8.2050002E-04    3.4821291E-02
 -8.2000002E-04    4.1614696E-02
 -8.1950001E-04    4.8824660E-02
 -8.1900001E-04    5.6030735E-02
 -8.1850000E-04    6.2792569E-02
 -8.1800000E-04    6.8680249E-02
 -8.1750000E-04    7.3305264E-02
 -8.1699999E-04    7.6349936E-02
 -8.1649999E-04    7.7592954E-02
 -8.1599999E-04    7.6929107E-02
 -8.1549998E-04    7.4381560E-02
 -8.1499998E-04    7.0105463E-02
 -8.1449997E-04    6.4382389E-02
 -8.1400003E-04    5.7605535E-02
 -8.1350002E-04    5.0256655E-02
 -8.1300002E-04    4.2875867E-02
 -8.1250002E-04    3.6026400E-02
 -8.1200001E-04    3.0256540E-02
 -8.1150001E-04    2.6061425E-02
 -8.1100001E-04    2.3847355E-02
 -8.1050000E-04    2.3901179E-02
 -8.1000000E-04    2.6367055E-02
 -8.0949999E-04    3.1232376E-02
 -8.0899999E-04    3.8324092E-02
 -8.0849999E-04    4.7315922E-02
 -8.0799998E-04    5.7746172E-02
 -8.0749998E-04    6.9045223E-02
 -8.0699997E-04    8.0570951E-02
 -8.0649997E-04    9.1649823E-02
 -8.0600003E-04    0.1016209    
 -8.0550002E-04    0.1098801    
 -8.0500002E-04    0.1159209    
 -8.0450001E-04    0.1193697    
 -8.0400001E-04    0.1200130    
 -8.0350001E-04    0.1178135    
 -8.0300000E-04    0.1129153    
 -8.0250000E-04    0.1056371    
 -8.0200000E-04    9.6453376E-02
 -8.0149999E-04    8.5965209E-02
 -8.0099999E-04    7.4862286E-02
 -8.0049998E-04    6.3878767E-02
 -7.9999998E-04    5.3745862E-02
 -7.9949998E-04    4.5144200E-02
 -7.9899997E-04    3.8659293E-02
 -7.9850003E-04    3.4743048E-02
 -7.9800002E-04    3.3683978E-02
 -7.9750002E-04    3.5588101E-02
 -7.9700002E-04    4.0371865E-02
 -7.9650001E-04    4.7767606E-02
 -7.9600001E-04    5.7341173E-02
 -7.9550000E-04    6.8520553E-02
 -7.9500000E-04    8.0633588E-02
 -7.9450000E-04    9.2952169E-02
 -7.9399999E-04    0.1047400    
 -7.9349999E-04    0.1153009    
 -7.9299998E-04    0.1240233    
 -7.9249998E-04    0.1304204    
 -7.9199998E-04    0.1341600    
 -7.9149997E-04    0.1350845    
 -7.9100003E-04    0.1332194    
 -7.9050002E-04    0.1287689    
 -7.9000002E-04    0.1220994    
 -7.8950002E-04    0.1137132    
 -7.8900001E-04    0.1042123    
 -7.8850001E-04    9.4256848E-02
 -7.8800000E-04    8.4520288E-02
 -7.8750000E-04    7.5644098E-02
 -7.8700000E-04    6.8196066E-02
 -7.8649999E-04    6.2634327E-02
 -7.8599999E-04    5.9279926E-02
 -7.8549999E-04    5.8299631E-02
 -7.8499998E-04    5.9699941E-02
 -7.8449998E-04    6.3332565E-02
 -7.8399997E-04    6.8910718E-02
 -7.8350003E-04    7.6034814E-02
 -7.8300002E-04    8.4225364E-02
 -7.8250002E-04    9.2960566E-02
 -7.8200002E-04    0.1017156    
 -7.8150001E-04    0.1100008    
 -7.8100001E-04    0.1173951    
 -7.8050001E-04    0.1235739    
 -7.8000000E-04    0.1283271    
 -7.7950000E-04    0.1315681    
 -7.7899999E-04    0.1333329    
 -7.7849999E-04    0.1337678    
 -7.7799999E-04    0.1331105    
 -7.7749998E-04    0.1316630    
 -7.7699998E-04    0.1297603    
 -7.7649998E-04    0.1277384    
 -7.7599997E-04    0.1259024    
 -7.7550003E-04    0.1244994    
 -7.7500002E-04    0.1236974    
 -7.7450002E-04    0.1235725    
 -7.7400001E-04    0.1241049    
 -7.7350001E-04    0.1251853    
 -7.7300001E-04    0.1266291    
 -7.7250000E-04    0.1281991    
 -7.7200000E-04    0.1296331    
 -7.7150000E-04    0.1306749    
 -7.7099999E-04    0.1311045    
 -7.7049999E-04    0.1307667    
 -7.6999998E-04    0.1295927    
 -7.6949998E-04    0.1276148    
 -7.6899998E-04    0.1249712    
 -7.6849997E-04    0.1219005    
 -7.6800003E-04    0.1187262    
 -7.6750002E-04    0.1158316    
 -7.6700002E-04    0.1136281    
 -7.6650002E-04    0.1125184    
 -7.6600001E-04    0.1128578    
 -7.6550001E-04    0.1149182    
 -7.6500000E-04    0.1188564    
 -7.6450000E-04    0.1246914    
 -7.6400000E-04    0.1322909    
 -7.6349999E-04    0.1413718    
 -7.6299999E-04    0.1515121    
 -7.6249999E-04    0.1621760    
 -7.6199998E-04    0.1727494    
 -7.6149998E-04    0.1825841    
 -7.6099997E-04    0.1910473    
 -7.6050003E-04    0.1975718    
 -7.6000002E-04    0.2017041    
 -7.5950002E-04    0.2031455    
 -7.5900002E-04    0.2017827    
 -7.5850001E-04    0.1977053    
 -7.5800001E-04    0.1912081    
 -7.5750001E-04    0.1827781    
 -7.5700000E-04    0.1730652    
 -7.5650000E-04    0.1628398    
 -7.5599999E-04    0.1529400    
 -7.5549999E-04    0.1442112    
 -7.5499999E-04    0.1374436    
 -7.5449998E-04    0.1333120    
 -7.5399998E-04    0.1323224    
 -7.5349997E-04    0.1347699    
 -7.5299997E-04    0.1407111    
 -7.5250003E-04    0.1499544    
 -7.5200002E-04    0.1620671    
 -7.5150002E-04    0.1764024    
 -7.5100001E-04    0.1921411    
 -7.5050001E-04    0.2083475    
 -7.5000001E-04    0.2240355    
 -7.4950000E-04    0.2382381    
 -7.4900000E-04    0.2500776    
 -7.4850000E-04    0.2588300    
 -7.4799999E-04    0.2639785    
 -7.4749999E-04    0.2652533    
 -7.4699998E-04    0.2626534    
 -7.4649998E-04    0.2564491    
 -7.4599998E-04    0.2471652    