 -1.2000001E-03    1.0000000E-24
 -1.1995001E-03    1.0000000E-24
 -1.1990000E-03    1.0000000E-24
 -1.1985000E-03    1.0000000E-24
 -1.1980000E-03    1.0000000E-24
 -1.1975000E-03    1.0000000E-24
 -1.1970000E-03    1.0000000E-24
 -1.1965000E-03    1.0000000E-24
 -1.1960000E-03    1.0000000E-24
 -1.1955000E-03    1.0000001E-24
 -1.1950000E-03    1.0000002E-24
 -1.1945000E-03    1.0000002E-24
 -1.1940000E-03    1.0000002E-24
 -1.1935000E-03    1.0000002E-24
 -1.1930000E-03    1.0000002E-24
 -1.1925000E-03    1.0000002E-24
 -1.1920000E-03    1.0000002E-24
 -1.1915000E-03    1.0000002E-24
 -1.1910000E-03    1.0000002E-24
 -1.1905000E-03    1.0000002E-24
 -1.1900000E-03    1.0000002E-24
 -1.1895000E-03    1.0000002E-24
 -1.1890000E-03    1.0000002E-24
 -1.1885000E-03    1.0000002E-24
 -1.1880000E-03    1.0000002E-24
 -1.1875000E-03    1.0000001E-24
 -1.1870000E-03    1.0000000E-24
 -1.1865000E-03    9.9999972E-25
 -1.1860000E-03    9.9999884E-25
 -1.1854999E-03    9.9999627E-25
 -1.1849999E-03    9.9998937E-25
 -1.1845001E-03    9.9997182E-25
 -1.1840001E-03    9.9992932E-25
 -1.1835000E-03    9.9983081E-25
 -1.1830000E-03    9.9961190E-25
 -1.1825000E-03    9.9914499E-25
 -1.1820000E-03    9.9818830E-25
 -1.1815000E-03    9.9630421E-25
 -1.1810000E-03    9.9273786E-25
 -1.1805000E-03    9.8625481E-25
 -1.1800000E-03    9.7495655E-25
 -1.1795000E-03    9.5614024E-25
 -1.1790000E-03    9.2635887E-25
 -1.1785000E-03    8.8199077E-25
 -1.1780000E-03    8.2088008E-25
 -1.1775000E-03    7.4597231E-25
 -1.1770000E-03    6.7236129E-25
 -1.1765000E-03    6.3976013E-25
 -1.1760000E-03    7.3299959E-25
 -1.1755000E-03    1.1135458E-24
 -1.1750000E-03    2.0648134E-24
 -1.1745000E-03    4.0526207E-24
 -1.1740000E-03    7.7985835E-24
 -1.1735000E-03    1.4357393E-23
 -1.1730000E-03    2.5177367E-23
 -1.1725000E-03    4.2106012E-23
 -1.1720000E-03    6.7277605E-23
 -1.1715000E-03    1.0278803E-22
 -1.1710000E-03    1.5002540E-22
 -1.1704999E-03    2.0848888E-22
 -1.1699999E-03    2.7390225E-22
 -1.1695001E-03    3.3543004E-22
 -1.1690001E-03    3.7185593E-22
 -1.1685000E-03    3.4671527E-22
 -1.1680000E-03    2.0262633E-22
 -1.1675000E-03   -1.4452755E-22
 -1.1670000E-03   -8.1031363E-22
 -1.1665000E-03   -1.9433076E-21
 -1.1660000E-03   -3.7204476E-21
 -1.1655000E-03   -6.3320397E-21
 -1.1650000E-03   -9.9512114E-21
 -1.1645000E-03   -1.4681863E-20
 -1.1640000E-03   -2.0479086E-20
 -1.1635000E-03   -2.7037179E-20
 -1.1630000E-03   -3.3643255E-20
 -1.1625000E-03   -3.8999947E-20
 -1.1620000E-03   -4.1029163E-20
 -1.1615000E-03   -3.6681040E-20
 -1.1610000E-03   -2.1787884E-20
 -1.1605000E-03    8.9781190E-21
 -1.1600000E-03    6.1964571E-20
 -1.1595000E-03    1.4411764E-19
 -1.1590000E-03    2.6216802E-19
 -1.1585000E-03    4.2130956E-19
 -1.1580000E-03    6.2327170E-19
 -1.1575000E-03    8.6372840E-19
 -1.1570000E-03    1.1290646E-18
 -1.1565000E-03    1.3926386E-18
 -1.1560000E-03    1.6108445E-18
 -1.1555000E-03    1.7194899E-18
 -1.1549999E-03    1.6312491E-18
 -1.1544999E-03    1.2352135E-18
 -1.1540001E-03    3.9980837E-19
 -1.1535001E-03   -1.0194765E-18
 -1.1530000E-03   -3.1660365E-18
 -1.1525000E-03   -6.1604251E-18
 -1.1520000E-03   -1.0070004E-17
 -1.1515000E-03   -1.4869826E-17
 -1.1510000E-03   -2.0395759E-17
 -1.1505000E-03   -2.6292564E-17
 -1.1500000E-03   -3.1961610E-17
 -1.1495000E-03   -3.6515412E-17
 -1.1490000E-03   -3.8748551E-17
 -1.1485000E-03   -3.7137127E-17
 -1.1480000E-03   -2.9880454E-17
 -1.1475000E-03   -1.4999703E-17
 -1.1470000E-03    9.4928099E-18
 -1.1465000E-03    4.5343024E-17
 -1.1460000E-03    9.3718511E-17
 -1.1455000E-03    1.5479018E-16
 -1.1450000E-03    2.2724909E-16
 -1.1445000E-03    3.0779091E-16
 -1.1440000E-03    3.9061843E-16
 -1.1435000E-03    4.6703141E-16
 -1.1430000E-03    5.2519203E-16
 -1.1425000E-03    5.5016717E-16
 -1.1420000E-03    5.2435813E-16
 -1.1415000E-03    4.2842394E-16
 -1.1410000E-03    2.4278802E-16
 -1.1405000E-03   -5.0216811E-17
 -1.1399999E-03   -4.6356520E-16
 -1.1394999E-03   -1.0021923E-15
 -1.1390001E-03   -1.6592535E-15
 -1.1385001E-03   -2.4122670E-15
 -1.1380001E-03   -3.2195373E-15
 -1.1375000E-03   -4.0173625E-15
 -1.1370000E-03   -4.7186257E-15
 -1.1365000E-03   -5.2134289E-15
 -1.1360000E-03   -5.3724225E-15
 -1.1355000E-03   -5.0534214E-15
 -1.1350000E-03   -4.1117237E-15
 -1.1345000E-03   -2.4142961E-15
 -1.1340000E-03    1.4238759E-16
 -1.1335000E-03    3.6115325E-15
 -1.1330000E-03    7.9734506E-15
 -1.1325000E-03    1.3113026E-14
 -1.1320000E-03    1.8799598E-14
 -1.1315000E-03    2.4672086E-14
 -1.1310000E-03    3.0232598E-14
 -1.1305000E-03    3.4851733E-14
 -1.1300000E-03    3.7788705E-14
 -1.1295000E-03    3.8228650E-14
 -1.1290000E-03    3.5338601E-14
 -1.1285000E-03    2.8341910E-14
 -1.1280000E-03    1.6609222E-14
 -1.1275000E-03   -2.3834387E-16
 -1.1270000E-03   -2.2220395E-14
 -1.1265000E-03   -4.8891972E-14
 -1.1260000E-03   -7.9252868E-14
 -1.1255000E-03   -1.1168436E-13
 -1.1250000E-03   -1.4392671E-13
 -1.1244999E-03   -1.7311048E-13
 -1.1239999E-03   -1.9585249E-13
 -1.1235001E-03   -2.0842444E-13
 -1.1230001E-03   -2.0699631E-13
 -1.1225000E-03   -1.8795100E-13
 -1.1220000E-03   -1.4825832E-13
 -1.1215000E-03   -8.5888429E-14
 -1.1210000E-03   -2.3634337E-16
 -1.1205000E-03    1.0747857E-13
 -1.1200000E-03    2.3387995E-13
 -1.1195000E-03    3.7321375E-13
 -1.1190000E-03    5.1728429E-13
 -1.1185000E-03    6.5558697E-13
 -1.1180000E-03    7.7566913E-13
 -1.1175000E-03    8.6373486E-13
 -1.1170000E-03    9.0549280E-13
 -1.1165000E-03    8.8722307E-13
 -1.1160000E-03    7.9701594E-13
 -1.1155000E-03    6.2611038E-13
 -1.1150000E-03    3.7023829E-13
 -1.1145000E-03    3.0863885E-14
 -1.1140000E-03   -3.8380537E-13
 -1.1135000E-03   -8.5815952E-13
 -1.1130000E-03   -1.3689943E-12
 -1.1125000E-03   -1.8858816E-12
 -1.1120000E-03   -2.3721665E-12
 -1.1115000E-03   -2.7866104E-12
 -1.1110000E-03   -3.0856554E-12
 -1.1105000E-03   -3.2262251E-12
 -1.1100000E-03   -3.1689280E-12
 -1.1094999E-03   -2.8814778E-12
 -1.1089999E-03   -2.3421078E-12
 -1.1084999E-03   -1.5427271E-12
 -1.1080001E-03   -4.9156556E-13
 -1.1075001E-03    7.8493798E-13
 -1.1070000E-03    2.2412159E-12
 -1.1065000E-03    3.8127774E-12
 -1.1060000E-03    5.4176329E-12
 -1.1055000E-03    6.9589603E-12
 -1.1050000E-03    8.3289374E-12
 -1.1045000E-03    9.4136227E-12
 -1.1040000E-03    1.0098682E-11
 -1.1035000E-03    1.0275724E-11
 -1.1030000E-03    9.8489784E-12
 -1.1025000E-03    8.7420713E-12
 -1.1020000E-03    6.9046379E-12
 -1.1015000E-03    4.3185642E-12
 -1.1010000E-03    1.0036711E-12
 -1.1005000E-03   -2.9773250E-12
 -1.1000000E-03   -7.5147501E-12
 -1.0995000E-03   -1.2449013E-11
 -1.0990000E-03   -1.7569030E-11
 -1.0985000E-03   -2.2612414E-11
 -1.0980000E-03   -2.7267976E-11
 -1.0975000E-03   -3.1181172E-11
 -1.0970000E-03   -3.3963311E-11
 -1.0965000E-03   -3.5205366E-11
 -1.0960000E-03   -3.4497162E-11
 -1.0955000E-03   -3.1452615E-11
 -1.0950000E-03   -2.5741216E-11
 -1.0945000E-03   -1.7125469E-11
 -1.0939999E-03   -5.5031925E-12
 -1.0934999E-03    9.0474017E-12
 -1.0930001E-03    2.6222960E-11
 -1.0925001E-03    4.5454841E-11
 -1.0920000E-03    6.5878830E-11
 -1.0915000E-03    8.6320749E-11
 -1.0910000E-03    1.0530438E-10
 -1.0905000E-03    1.2108779E-10
 -1.0900000E-03    1.3173333E-10
 -1.0895000E-03    1.3521453E-10
 -1.0890000E-03    1.2956061E-10
 -1.0885000E-03    1.1303556E-10
 -1.0880000E-03    8.4344649E-11
 -1.0875000E-03    4.2856382E-11
 -1.0870000E-03   -1.1176732E-11
 -1.0865000E-03   -7.6419489E-11
 -1.0860000E-03   -1.5030165E-10
 -1.0855000E-03   -2.2893780E-10
 -1.0850000E-03   -3.0714481E-10
 -1.0845000E-03   -3.7857906E-10
 -1.0840000E-03   -4.3600984E-10
 -1.0835000E-03   -4.7173554E-10
 -1.0830000E-03   -4.7813820E-10
 -1.0825000E-03   -4.4835674E-10
 -1.0820000E-03   -3.7704467E-10
 -1.0815000E-03   -2.6116162E-10
 -1.0810000E-03   -1.0073373E-10
 -1.0805000E-03    1.0049225E-10
 -1.0800000E-03    3.3458422E-10
 -1.0795000E-03    5.8923094E-10
 -1.0790000E-03    8.4789342E-10
 -1.0784999E-03    1.0903582E-09
 -1.0779999E-03    1.2937266E-09
 -1.0775001E-03    1.4338351E-09
 -1.0770001E-03    1.4870687E-09
 -1.0765000E-03    1.4324790E-09
 -1.0760000E-03    1.2540791E-09
 -1.0755000E-03    9.4314223E-10
 -1.0750000E-03    5.0030285E-10
 -1.0745000E-03   -6.2764786E-11
 -1.0740000E-03   -7.2231576E-10
 -1.0735000E-03   -1.4423616E-09
 -1.0730000E-03   -2.1755231E-09
 -1.0725000E-03   -2.8650158E-09
 -1.0720000E-03   -3.4477932E-09
 -1.0715000E-03   -3.8587702E-09
 -1.0710000E-03   -4.0359400E-09
 -1.0705000E-03   -3.9260919E-09
 -1.0700000E-03   -3.4907246E-09
 -1.0695000E-03   -2.7116751E-09
 -1.0690000E-03   -1.5959231E-09
 -1.0685000E-03   -1.7902398E-10
 -1.0680000E-03    1.4733499E-09
 -1.0675000E-03    3.2661871E-09
 -1.0670000E-03    5.0785256E-09
 -1.0665000E-03    6.7695609E-09
 -1.0660000E-03    8.1873468E-09
 -1.0655000E-03    9.1797361E-09
 -1.0650000E-03    9.6069330E-09
 -1.0645000E-03    9.3548147E-09
 -1.0640000E-03    8.3479810E-09
 -1.0634999E-03    6.5613741E-09
 -1.0629999E-03    4.0292649E-09
 -1.0625001E-03    8.5046403E-10
 -1.0620001E-03   -2.8111848E-09
 -1.0615001E-03   -6.7317227E-09
 -1.0610000E-03   -1.0637683E-08
 -1.0605000E-03   -1.4222226E-08
 -1.0600000E-03   -1.7166119E-08
 -1.0595000E-03   -1.9162371E-08
 -1.0590000E-03   -1.9942872E-08
 -1.0585000E-03   -1.9304984E-08
 -1.0580000E-03   -1.7135793E-08
 -1.0575000E-03   -1.3431679E-08
 -1.0570000E-03   -8.3109475E-09
 -1.0565000E-03   -2.0176503E-09
 -1.0560000E-03    5.0847322E-09
 -1.0555000E-03    1.2530347E-08
 -1.0550000E-03    1.9778447E-08
 -1.0545000E-03    2.6250076E-08
 -1.0540000E-03    3.1371723E-08
 -1.0535000E-03    3.4622939E-08
 -1.0530000E-03    3.5584133E-08
 -1.0525000E-03    3.3980463E-08
 -1.0520000E-03    2.9717560E-08
 -1.0515000E-03    2.2905214E-08
 -1.0510000E-03    1.3865773E-08
 -1.0505000E-03    3.1250860E-09
 -1.0500000E-03   -8.6147676E-09
 -1.0495000E-03   -2.0520243E-08
 -1.0490000E-03   -3.1686096E-08
 -1.0485000E-03   -4.1206111E-08
 -1.0479999E-03   -4.8249412E-08
 -1.0474999E-03   -5.2135839E-08
 -1.0470001E-03   -5.2403550E-08
 -1.0465001E-03   -4.8861963E-08
 -1.0460000E-03   -4.1624080E-08
 -1.0455000E-03   -3.1113480E-08
 -1.0450000E-03   -1.8043515E-08
 -1.0445000E-03   -3.3684520E-09
 -1.0440000E-03    1.1790829E-08
 -1.0435000E-03    2.6241308E-08
 -1.0430000E-03    3.8824808E-08
 -1.0425000E-03    4.8527824E-08
 -1.0420000E-03    5.4583516E-08
 -1.0415000E-03    5.6554910E-08
 -1.0410000E-03    5.4389393E-08
 -1.0405000E-03    4.8436597E-08
 -1.0400000E-03    3.9424830E-08
 -1.0395000E-03    2.8395142E-08
 -1.0390000E-03    1.6596506E-08
 -1.0385000E-03    5.3500382E-09
 -1.0380000E-03   -4.1055341E-09
 -1.0375000E-03   -1.0771751E-08
 -1.0370000E-03   -1.4034094E-08
 -1.0365000E-03   -1.3773493E-08
 -1.0360000E-03   -1.0429130E-08
 -1.0355000E-03   -4.9994537E-09
 -1.0350000E-03    1.0265543E-09
 -1.0345000E-03    5.8089755E-09
 -1.0340000E-03    7.3608715E-09
 -1.0335000E-03    3.8019143E-09
 -1.0329999E-03   -6.3604362E-09
 -1.0324999E-03   -2.3950550E-08
 -1.0319999E-03   -4.8877396E-08
 -1.0315001E-03   -7.9953949E-08
 -1.0310001E-03   -1.1481441E-07
 -1.0305000E-03   -1.4995456E-07
 -1.0300000E-03   -1.8091120E-07
 -1.0295000E-03   -2.0258395E-07
 -1.0290000E-03   -2.0968842E-07
 -1.0285000E-03   -1.9731422E-07
 -1.0280000E-03   -1.6154554E-07
 -1.0275000E-03   -1.0009001E-07
 -1.0270000E-03   -1.2851430E-08
 -1.0265000E-03    9.7621871E-08
 -1.0260000E-03    2.2587948E-07
 -1.0255000E-03    3.6355942E-07
 -1.0250000E-03    4.9966837E-07
 -1.0245000E-03    6.2117067E-07
 -1.0240000E-03    7.1387751E-07
 -1.0235000E-03    7.6359839E-07
 -1.0230000E-03    7.5748420E-07
 -1.0225000E-03    6.8546359E-07
 -1.0220000E-03    5.4165116E-07
 -1.0215000E-03    3.2558987E-07
 -1.0210000E-03    4.3186809E-08
 -1.0205000E-03   -2.9278968E-07
 -1.0200000E-03   -6.6276226E-07
 -1.0195000E-03   -1.0410211E-06
 -1.0190000E-03   -1.3970517E-06
 -1.0185000E-03   -1.6974881E-06
 -1.0180000E-03   -1.9085987E-06
 -1.0174999E-03   -1.9991619E-06
 -1.0169999E-03   -1.9435211E-06
 -1.0165001E-03   -1.7245794E-06
 -1.0160001E-03   -1.3364562E-06
 -1.0155000E-03   -7.8653153E-07
 -1.0150000E-03   -9.6618585E-08
 -1.0145000E-03    6.9694829E-07
 -1.0140000E-03    1.5444549E-06
 -1.0135000E-03    2.3852313E-06
 -1.0130000E-03    3.1513093E-06
 -1.0125000E-03    3.7721456E-06
 -1.0120000E-03    4.1801391E-06
 -1.0115000E-03    4.3165596E-06
 -1.0110000E-03    4.1374406E-06
 -1.0105000E-03    3.6189233E-06
 -1.0100000E-03    2.7615470E-06
 -1.0095000E-03    1.5930027E-06
 -1.0090000E-03    1.6894747E-07
 -1.0085000E-03   -1.4283946E-06
 -1.0080000E-03   -3.0939718E-06
 -1.0075000E-03   -4.7059166E-06
 -1.0070000E-03   -6.1335681E-06
 -1.0065000E-03   -7.2470525E-06
 -1.0060000E-03   -7.9277761E-06
 -1.0055000E-03   -8.0790687E-06
 -1.0050000E-03   -7.6361039E-06
 -1.0045000E-03   -6.5742097E-06
 -1.0040000E-03   -4.9147484E-06
 -1.0035000E-03   -2.7278227E-06
 -1.0030000E-03   -1.3131822E-07
 -1.0025000E-03    2.7139963E-06
 -1.0019999E-03    5.6132621E-06
 -1.0014999E-03    8.3498526E-06
 -1.0010001E-03    1.0700537E-05
 -1.0005001E-03    1.2452494E-05
 -1.0000000E-03    1.3420966E-05
 -9.9950004E-04    1.3466165E-05
 -9.9900004E-04    1.2508011E-05
 -9.9850004E-04    1.0537330E-05
 -9.9800003E-04    7.6223178E-06
 -9.9750003E-04    3.9093743E-06
 -9.9700002E-04   -3.8220057E-07
 -9.9650002E-04   -4.9717023E-06
 -9.9600002E-04   -9.5342502E-06
 -9.9550001E-04   -1.3722804E-05
 -9.9500001E-04   -1.7193543E-05
 -9.9450001E-04   -1.9632838E-05
 -9.9400000E-04   -2.0783764E-05
 -9.9350000E-04   -2.0469983E-05
 -9.9299999E-04   -1.8614952E-05
 -9.9249999E-04   -1.5254563E-05
 -9.9199999E-04   -1.0541798E-05
 -9.9149998E-04   -4.7425015E-06
 -9.9099998E-04    1.7779678E-06
 -9.9049998E-04    8.5767069E-06
 -9.8999997E-04    1.5162652E-05
 -9.8949997E-04    2.1031487E-05
 -9.8899996E-04    2.5703630E-05
 -9.8849996E-04    2.8762473E-05
 -9.8799996E-04    2.9889859E-05
 -9.8749995E-04    2.8895811E-05
 -9.8699995E-04    2.5739884E-05
 -9.8649994E-04    2.0542007E-05
 -9.8600006E-04    1.3581387E-05
 -9.8550005E-04    5.2830123E-06
 -9.8500005E-04   -3.8078215E-06
 -9.8450005E-04   -1.3061474E-05
 -9.8400004E-04   -2.1808091E-05
 -9.8350004E-04   -2.9386760E-05
 -9.8300003E-04   -3.5196023E-05
 -9.8250003E-04   -3.8741833E-05
 -9.8200003E-04   -3.9679078E-05
 -9.8150002E-04   -3.7843103E-05
 -9.8100002E-04   -3.3268418E-05
 -9.8050002E-04   -2.6192665E-05
 -9.8000001E-04   -1.7045000E-05
 -9.7950001E-04   -6.4193432E-06
 -9.7900000E-04    4.9658665E-06
 -9.7850000E-04    1.6318607E-05
 -9.7800000E-04    2.6831160E-05
 -9.7749999E-04    3.5740519E-05
 -9.7699999E-04    4.2386615E-05
 -9.7649998E-04    4.6263645E-05
 -9.7599998E-04    4.7060301E-05
 -9.7549998E-04    4.4685508E-05
 -9.7499997E-04    3.9277333E-05
 -9.7450003E-04    3.1194199E-05
 -9.7400002E-04    2.0988819E-05
 -9.7350002E-04    9.3668332E-06
 -9.7300002E-04   -2.8666057E-06
 -9.7250001E-04   -1.4868069E-05
 -9.7200001E-04   -2.5819880E-05
 -9.7150001E-04   -3.4991721E-05
 -9.7100000E-04   -4.1794709E-05
 -9.7050000E-04   -4.5823494E-05
 -9.6999999E-04   -4.6882920E-05
 -9.6949999E-04   -4.4997138E-05
 -9.6899999E-04   -4.0400570E-05
 -9.6849998E-04   -3.3511795E-05
 -9.6799998E-04   -2.4892812E-05
 -9.6749997E-04   -1.5197628E-05
 -9.6700003E-04   -5.1148832E-06
 -9.6650003E-04    4.6900886E-06
 -9.6600002E-04    1.3628431E-05
 -9.6550002E-04    2.1231293E-05
 -9.6500001E-04    2.7179791E-05
 -9.6450001E-04    3.1318807E-05
 -9.6400001E-04    3.3653690E-05
 -9.6350000E-04    3.4330606E-05
 -9.6300000E-04    3.3603013E-05
 -9.6249999E-04    3.1788146E-05
 -9.6199999E-04    2.9218603E-05
 -9.6149999E-04    2.6194561E-05
 -9.6099998E-04    2.2942388E-05
 -9.6049998E-04    1.9584684E-05
 -9.5999998E-04    1.6125761E-05
 -9.5949997E-04    1.2454938E-05
 -9.5900003E-04    8.3680980E-06
 -9.5850002E-04    3.6059064E-06
 -9.5800002E-04   -2.0949885E-06
 -9.5750001E-04   -8.9431505E-06
 -9.5700001E-04   -1.7032666E-05
 -9.5650001E-04   -2.6289914E-05
 -9.5600000E-04   -3.6434121E-05
 -9.5550000E-04   -4.6958132E-05
 -9.5500000E-04   -5.7134246E-05
 -9.5449999E-04   -6.6047818E-05
 -9.5399999E-04   -7.2658469E-05
 -9.5349998E-04   -7.5885982E-05
 -9.5299998E-04   -7.4714968E-05
 -9.5249998E-04   -6.8309877E-05
 -9.5199997E-04   -5.6130015E-05
 -9.5150003E-04   -3.8032929E-05
 -9.5100002E-04   -1.4354770E-05
 -9.5050002E-04    1.4043167E-05
 -9.5000002E-04    4.5770077E-05
 -9.4950001E-04    7.8948913E-05
 -9.4900001E-04    1.1130879E-04
 -9.4850000E-04    1.4032362E-04
 -9.4800000E-04    1.6338992E-04
 -9.4750000E-04    1.7803183E-04
 -9.4699999E-04    1.8211876E-04
 -9.4649999E-04    1.7407787E-04
 -9.4599999E-04    1.5308276E-04
 -9.4549998E-04    1.1920006E-04
 -9.4499998E-04    7.3477873E-05
 -9.4449997E-04    1.7963166E-05
 -9.4400003E-04   -4.4359549E-05
 -9.4350002E-04   -1.0970988E-04
 -9.4300002E-04   -1.7372891E-04
 -9.4250002E-04   -2.3176076E-04
 -9.4200001E-04   -2.7918085E-04
 -9.4150001E-04   -3.1174815E-04
 -9.4100001E-04   -3.2595510E-04
 -9.4050000E-04   -3.1934786E-04
 -9.4000000E-04   -2.9078871E-04
 -9.3949999E-04   -2.4063709E-04
 -9.3899999E-04   -1.7082872E-04
 -9.3849999E-04   -8.4840780E-05
 -9.3799998E-04    1.2461682E-05
 -9.3749998E-04    1.1509356E-04
 -9.3699998E-04    2.1631789E-04
 -9.3649997E-04    3.0909196E-04
 -9.3600003E-04    3.8656214E-04
 -9.3550002E-04    4.4257188E-04
 -9.3500002E-04    4.7214548E-04
 -9.3450001E-04    4.7190973E-04
 -9.3400001E-04    4.4041887E-04
 -9.3350001E-04    3.7835311E-04
 -9.3300000E-04    2.8857088E-04
 -9.3250000E-04    1.7600355E-04
 -9.3200000E-04    4.7393987E-05
 -9.3149999E-04   -8.9108355E-05
 -9.3099999E-04   -2.2447163E-04
 -9.3049998E-04   -3.4939108E-04
 -9.2999998E-04   -4.5494197E-04
 -9.2949998E-04   -5.3322961E-04
 -9.2899997E-04   -5.7798857E-04
 -9.2850003E-04   -5.8508484E-04
 -9.2800002E-04   -5.5288238E-04
 -9.2750002E-04   -4.8244104E-04
 -9.2700002E-04   -3.7752726E-04
 -9.2650001E-04   -2.4443143E-04
 -9.2600001E-04   -9.1598180E-05
 -9.2550000E-04    7.0907321E-05
 -9.2500000E-04    2.3206414E-04
 -9.2450000E-04    3.8064623E-04
 -9.2399999E-04    5.0600752E-04
 -9.2349999E-04    5.9884589E-04
 -9.2299999E-04    6.5189030E-04
 -9.2249998E-04    6.6046166E-04
 -9.2199998E-04    6.2286301E-04
 -9.2149997E-04    5.4056931E-04
 -9.2100003E-04    4.1819838E-04
 -9.2050002E-04    2.6326141E-04
 -9.2000002E-04    8.5706663E-05
 -9.1950002E-04   -1.0271577E-04
 -9.1900001E-04   -2.8922610E-04
 -9.1850001E-04   -4.6087251E-04
 -9.1800001E-04   -6.0541573E-04
 -9.1750000E-04   -7.1217987E-04
 -9.1700000E-04   -7.7281013E-04
 -9.1649999E-04   -7.8188448E-04
 -9.1599999E-04   -7.3733489E-04
 -9.1549999E-04   -6.4064795E-04
 -9.1499998E-04   -4.9682881E-04
 -9.1449998E-04   -3.1412771E-04
 -9.1399997E-04   -1.0354764E-04
 -9.1349997E-04    1.2183817E-04
 -9.1300003E-04    3.4771278E-04
 -9.1250002E-04    5.5943243E-04
 -9.1200002E-04    7.4297376E-04
 -9.1150001E-04    8.8584848E-04
 -9.1100001E-04    9.7792561E-04
 -9.1050001E-04    1.0121064E-03
 -9.1000000E-04    9.8480901E-04
 -9.0950000E-04    8.9622993E-04
 -9.0899999E-04    7.5036555E-04
 -9.0849999E-04    5.5479363E-04
 -9.0799999E-04    3.2022764E-04
 -9.0749998E-04    5.9874132E-05
 -9.0699998E-04   -2.1136548E-04
 -9.0649998E-04   -4.7779770E-04
 -9.0599997E-04   -7.2388648E-04
 -9.0550003E-04   -9.3518931E-04
 -9.0500002E-04   -1.0992219E-03
 -9.0450002E-04   -1.2061971E-03
 -9.0400001E-04   -1.2495955E-03
 -9.0350001E-04   -1.2265316E-03
 -9.0300001E-04   -1.1378977E-03
 -9.0250000E-04   -9.8827924E-04
 -9.0200000E-04   -7.8565069E-04
 -9.0150000E-04   -5.4087414E-04
 -9.0099999E-04   -2.6703617E-04
 -9.0049999E-04    2.1334588E-05
 -8.9999998E-04    3.0911659E-04
 -8.9949998E-04    5.8145938E-04
 -8.9899998E-04    8.2460878E-04
 -8.9849997E-04    1.0266439E-03
 -8.9800003E-04    1.1780839E-03
 -8.9750002E-04    1.2723330E-03
 -8.9700002E-04    1.3059404E-03
 -8.9650002E-04    1.2786702E-03
 -8.9600001E-04    1.1933813E-03
 -8.9550001E-04    1.0557369E-03
 -8.9500000E-04    8.7376940E-04
 -8.9450000E-04    6.5733347E-04
 -8.9400000E-04    4.1749119E-04
 -8.9349999E-04    1.6586948E-04
 -8.9299999E-04   -8.5967295E-05
 -8.9249999E-04   -3.2709111E-04
 -8.9199998E-04   -5.4769893E-04
 -8.9149998E-04   -7.3949294E-04
 -8.9099997E-04   -8.9593837E-04
 -8.9050003E-04   -1.0123964E-03
 -8.9000002E-04   -1.0861392E-03
 -8.8950002E-04   -1.1162614E-03
 -8.8900002E-04   -1.1035111E-03
 -8.8850001E-04   -1.0500681E-03
 -8.8800001E-04   -9.5929555E-04
 -8.8750001E-04   -8.3549367E-04
 -8.8700000E-04   -6.8367616E-04
 -8.8650000E-04   -5.0938712E-04
 -8.8599999E-04   -3.1856558E-04
 -8.8549999E-04   -1.1745728E-04
 -8.8499999E-04    8.7435976E-05
 -8.8449998E-04    2.8938547E-04
 -8.8399998E-04    4.8146595E-04
 -8.8349998E-04    6.5661123E-04
 -8.8299997E-04    8.0771890E-04
 -8.8250003E-04    9.2782412E-04
 -8.8200002E-04    1.0103540E-03
 -8.8150002E-04    1.0494649E-03
 -8.8100001E-04    1.0404533E-03
 -8.8050001E-04    9.8021678E-04
 -8.8000001E-04    8.6772989E-04
 -8.7950000E-04    7.0449215E-04
 -8.7900000E-04    4.9489469E-04
 -8.7850000E-04    2.4645249E-04
 -8.7799999E-04   -3.0148722E-05
 -8.7749999E-04   -3.2123318E-04
 -8.7699998E-04   -6.1057205E-04
 -8.7649998E-04   -8.8008586E-04
 -8.7599998E-04   -1.1107994E-03
 -8.7549997E-04   -1.2840121E-03
 -8.7500003E-04   -1.3826224E-03
 -8.7450002E-04   -1.3925218E-03
 -8.7400002E-04   -1.3039589E-03
 -8.7350002E-04   -1.1127606E-03
 -8.7300001E-04   -8.2129677E-04
 -8.7250001E-04   -4.3908105E-04
 -8.7200000E-04    1.7082382E-05
 -8.7150000E-04    5.2347168E-04
 -8.7100000E-04    1.0503688E-03
 -8.7049999E-04    1.5635203E-03
 -8.6999999E-04    2.0260846E-03
 -8.6949999E-04    2.4009668E-03
 -8.6899998E-04    2.6534076E-03
 -8.6849998E-04    2.7536526E-03
 -8.6799997E-04    2.6795156E-03
 -8.6750003E-04    2.4186315E-03
 -8.6700002E-04    1.9702059E-03
 -8.6650002E-04    1.3460902E-03
 -8.6600002E-04    5.7104242E-04
 -8.6550001E-04   -3.1790696E-04
 -8.6500001E-04   -1.2730128E-03
 -8.6450001E-04   -2.2382522E-03
 -8.6400000E-04   -3.1525295E-03
 -8.6350000E-04   -3.9534741E-03
 -8.6299999E-04   -4.5815967E-03
 -8.6249999E-04   -4.9845320E-03
 -8.6199999E-04   -5.1210639E-03
 -8.6149998E-04   -4.9646362E-03
 -8.6099998E-04   -4.5060618E-03
 -8.6049997E-04   -3.7551883E-03
 -8.5999997E-04   -2.7413445E-03
 -8.5950003E-04   -1.5124641E-03
 -8.5900002E-04   -1.3287611E-04
 -8.5850002E-04    1.3201503E-03
 -8.5800001E-04    2.7609251E-03
 -8.5750001E-04    4.1006566E-03
 -8.5700001E-04    5.2532302E-03
 -8.5650000E-04    6.1410638E-03
 -8.5600000E-04    6.7006284E-03
 -8.5549999E-04    6.8872371E-03
 -8.5499999E-04    6.6787237E-03
 -8.5449999E-04    6.0777287E-03
 -8.5399998E-04    5.1123607E-03
 -8.5349998E-04    3.8351386E-03
 -8.5299998E-04    2.3202240E-03
 -8.5249997E-04    6.5908104E-04
 -8.5200003E-04   -1.0451830E-03
 -8.5150002E-04   -2.6844454E-03
 -8.5100002E-04   -4.1527268E-03
 -8.5050002E-04   -5.3533986E-03
 -8.5000001E-04   -6.2059364E-03
 -8.4950001E-04   -6.6517363E-03
 -8.4900000E-04   -6.6585657E-03
 -8.4850000E-04   -6.2233047E-03
 -8.4800000E-04   -5.3727422E-03
 -8.4749999E-04   -4.1623367E-03
 -8.4699999E-04   -2.6729729E-03
 -8.4649998E-04   -1.0059008E-03
 -8.4599998E-04    7.2382495E-04
 -8.4549998E-04    2.3949866E-03
 -8.4499997E-04    3.8884128E-03
 -8.4450003E-04    5.0952011E-03
 -8.4400002E-04    5.9243850E-03
 -8.4350002E-04    6.3095093E-03
 -8.4300002E-04    6.2136417E-03
 -8.4250001E-04    5.6324569E-03
 -8.4200001E-04    4.5951474E-03
 -8.4150000E-04    3.1630695E-03
 -8.4100000E-04    1.4261896E-03
 -8.4050000E-04   -5.0246192E-04
 -8.3999999E-04   -2.4939764E-03
 -8.3949999E-04   -4.4119274E-03
 -8.3899999E-04   -6.1213560E-03
 -8.3849998E-04   -7.4977824E-03
 -8.3799998E-04   -8.4356489E-03
 -8.3749997E-04   -8.8556185E-03
 -8.3700003E-04   -8.7102419E-03
 -8.3650002E-04   -7.9876017E-03
 -8.3600002E-04   -6.7126849E-03
 -8.3550002E-04   -4.9463646E-03
 -8.3500001E-04   -2.7820666E-03
 -8.3450001E-04   -3.4030690E-04
 -8.3400001E-04    2.2385509E-03
 -8.3350000E-04    4.8028547E-03
 -8.3300000E-04    7.1989973E-03
 -8.3249999E-04    9.2809349E-03
 -8.3199999E-04    1.0919281E-02
 -8.3149999E-04    1.2009406E-02
 -8.3099998E-04    1.2478035E-02
 -8.3049998E-04    1.2287930E-02
 -8.2999998E-04    1.1440376E-02
 -8.2949997E-04    9.9753253E-03
 -8.2900003E-04    7.9691894E-03
 -8.2850002E-04    5.5304435E-03
 -8.2800002E-04    2.7933095E-03
 -8.2750001E-04   -9.0074602E-05
 -8.2700001E-04   -2.9585243E-03
 -8.2650001E-04   -5.6511681E-03
 -8.2600000E-04   -8.0167344E-03
 -8.2550000E-04   -9.9222185E-03
 -8.2500000E-04   -1.1260421E-02
 -8.2449999E-04   -1.1955921E-02
 -8.2399999E-04   -1.1969166E-02
 -8.2349998E-04   -1.1298454E-02
 -8.2299998E-04   -9.9797361E-03
 -8.2249998E-04   -8.0842646E-03
 -8.2199997E-04   -5.7142810E-03
 -8.2150003E-04   -2.9970016E-03
 -8.2100002E-04   -7.7287128E-05
 -8.2050002E-04    2.8905731E-03
 -8.2000002E-04    5.7514748E-03
 -8.1950001E-04    8.3580278E-03
 -8.1900001E-04    1.0578519E-02
 -8.1850000E-04    1.2303879E-02
 -8.1800000E-04    1.3453304E-02
 -8.1750000E-04    1.3978227E-02
 -8.1699999E-04    1.3864494E-02
 -8.1649999E-04    1.3132638E-02
 -8.1599999E-04    1.1836312E-02
 -8.1549998E-04    1.0058978E-02
 -8.1499998E-04    7.9091126E-03
 -8.1449997E-04    5.5141891E-03
 -8.1400003E-04    3.0137955E-03
 -8.1350002E-04    5.5227109E-04
 -8.1300002E-04   -1.7287477E-03
 -8.1250002E-04   -3.6974980E-03
 -8.1200001E-04   -5.2386173E-03
 -8.1150001E-04   -6.2587294E-03
 -8.1100001E-04   -6.6908435E-03
 -8.1050000E-04   -6.4973915E-03
 -8.1000000E-04   -5.6718024E-03
 -8.0949999E-04   -4.2385934E-03
 -8.0899999E-04   -2.2520123E-03
 -8.0849999E-04    2.0665143E-04
 -8.0799998E-04    3.0329311E-03
 -8.0749998E-04    6.1040139E-03
 -8.0699997E-04    9.2843091E-03
 -8.0649997E-04    1.2431501E-02
 -8.0600003E-04    1.5402834E-02
 -8.0550002E-04    1.8061358E-02
 -8.0500002E-04    2.0281939E-02
 -8.0450001E-04    2.1956764E-02
 -8.0400001E-04    2.3000190E-02
 -8.0350001E-04    2.3352733E-02
 -8.0300000E-04    2.2984093E-02
 -8.0250000E-04    2.1895085E-02
 -8.0200000E-04    2.0118378E-02
 -8.0149999E-04    1.7718039E-02
 -8.0099999E-04    1.4787818E-02
 -8.0049998E-04    1.1448192E-02
 -7.9999998E-04    7.8422427E-03
 -7.9949998E-04    4.1304207E-03
 -7.9899997E-04    4.8434598E-04
 -7.9850003E-04   -2.9201922E-03
 -7.9800002E-04   -5.9108078E-03
 -7.9750002E-04   -8.3264019E-03
 -7.9700002E-04   -1.0025043E-02
 -7.9650001E-04   -1.0891497E-02
 -7.9600001E-04   -1.0844040E-02
 -7.9550000E-04   -9.8401625E-03
 -7.9500000E-04   -7.8808116E-03
 -7.9450000E-04   -5.0128107E-03
 -7.9399999E-04   -1.3291941E-03
 -7.9349999E-04    3.0327595E-03
 -7.9299998E-04    7.8958813E-03
 -7.9249998E-04    1.3049836E-02
 -7.9199998E-04    1.8260051E-02
 -7.9149997E-04    2.3278527E-02
 -7.9100003E-04    2.7856128E-02
 -7.9050002E-04    3.1755712E-02
 -7.9000002E-04    3.4765489E-02
 -7.8950002E-04    3.6711808E-02
 -7.8900001E-04    3.7470601E-02
 -7.8850001E-04    3.6976766E-02
 -7.8800000E-04    3.5230700E-02
 -7.8750000E-04    3.2301493E-02
 -7.8700000E-04    2.8326347E-02
 -7.8649999E-04    2.3505960E-02
 -7.8599999E-04    1.8096002E-02
 -7.8549999E-04    1.2394885E-02
 -7.8499998E-04    6.7283977E-03
 -7.8449998E-04    1.4319662E-03
 -7.8399997E-04   -3.1685100E-03
 -7.8350003E-04   -6.7761242E-03
 -7.8300002E-04   -9.1415513E-03
 -7.8250002E-04   -1.0079557E-02
 -7.8200002E-04   -9.4823120E-03
 -7.8150001E-04   -7.3285308E-03
 -7.8100001E-04   -3.6876807E-03
 -7.8050001E-04    1.2811880E-03
 -7.8000000E-04    7.3361439E-03
 -7.7950000E-04    1.4164386E-02
 -7.7899999E-04    2.1399003E-02
 -7.7849999E-04    2.8639548E-02
 -7.7799999E-04    3.5475310E-02
 -7.7749998E-04    4.1509822E-02
 -7.7699998E-04    4.6385109E-02
 -7.7649998E-04    4.9804129E-02
 -7.7599997E-04    5.1549930E-02
 -7.7550003E-04    5.1500194E-02
 -7.7500002E-04    4.9636159E-02
 -7.7450002E-04    4.6045233E-02
 -7.7400001E-04    4.0916987E-02
 -7.7350001E-04    3.4532730E-02
 -7.7300001E-04    2.7249143E-02
 -7.7250000E-04    1.9477062E-02
 -7.7200000E-04    1.1656636E-02
 -7.7150000E-04    4.2304755E-03
 -7.7099999E-04   -2.3834978E-03
 -7.7049999E-04   -7.8177163E-03
 -7.6999998E-04   -1.1777479E-02
 -7.6949998E-04   -1.4058813E-02
 -7.6899998E-04   -1.4560501E-02
 -7.6849997E-04   -1.3289476E-02
 -7.6800003E-04   -1.0359220E-02
 -7.6750002E-04   -5.9812921E-03
 -7.6700002E-04   -4.5053998E-04
 -7.6650002E-04    5.8749635E-03
 -7.6600001E-04    1.2597923E-02
 -7.6550001E-04    1.9308120E-02
 -7.6500000E-04    2.5609232E-02
 -7.6450000E-04    3.1144347E-02
 -7.6400000E-04    3.5618495E-02
 -7.6349999E-04    3.8816653E-02
 -7.6299999E-04    4.0616110E-02
 -7.6249999E-04    4.0992353E-02
 -7.6199998E-04    4.0018205E-02
 -7.6149998E-04    3.7856333E-02
 -7.6099997E-04    3.4745775E-02
 -7.6050003E-04    3.0983428E-02
 -7.6000002E-04    2.6901953E-02
 -7.5950002E-04    2.2845592E-02
 -7.5900002E-04    1.9145669E-02
 -7.5850001E-04    1.6097458E-02
 -7.5800001E-04    1.3939999E-02
 -7.5750001E-04    1.2840249E-02
 -7.5700000E-04    1.2882554E-02
 -7.5650000E-04    1.4064109E-02
 -7.5599999E-04    1.6296599E-02
 -7.5549999E-04    1.9413795E-02
 -7.5499999E-04    2.3184454E-02
 -7.5449998E-04    2.7329512E-02
 -7.5399998E-04    3.1542316E-02
 -7.5349997E-04    3.5510372E-02
 -7.5299997E-04    3.8937107E-02
 -7.5250003E-04    4.1562151E-02
 -7.5200002E-04    4.3178674E-02
 -7.5150002E-04    4.3646824E-02
 -7.5100001E-04    4.2902231E-02
 -7.5050001E-04    4.0959310E-02
 -7.5000001E-04    3.7909169E-02
 -7.4950000E-04    3.3912420E-02
 -7.4900000E-04    2.9187605E-02
 -7.4850000E-04    2.3996091E-02
 -7.4799999E-04    1.8624606E-02
 -7.4749999E-04    1.3366668E-02
 -7.4699998E-04    8.5042128E-03
 -7.4649998E-04    4.2906296E-03
 -7.4599998E-04    9.3630620E-04