 -1.2000001E-03    1.0000000E-24
 -1.1995001E-03    1.0000000E-24
 -1.1990000E-03    1.0000000E-24
 -1.1985000E-03    1.0000000E-24
 -1.1980000E-03    1.0000000E-24
 -1.1975000E-03    1.0000000E-24
 -1.1970000E-03    1.0000000E-24
 -1.1965000E-03    1.0000000E-24
 -1.1960000E-03    1.0000001E-24
 -1.1955000E-03    1.0000001E-24
 -1.1950000E-03    1.0000001E-24
 -1.1945000E-03    1.0000001E-24
 -1.1940000E-03    1.0000001E-24
 -1.1935000E-03    1.0000001E-24
 -1.1930000E-03    1.0000001E-24
 -1.1925000E-03    1.0000001E-24
 -1.1920000E-03    1.0000001E-24
 -1.1915000E-03    1.0000001E-24
 -1.1910000E-03    1.0000001E-24
 -1.1905000E-03    1.0000001E-24
 -1.1900000E-03    1.0000001E-24
 -1.1895000E-03    1.0000001E-24
 -1.1890000E-03    1.0000001E-24
 -1.1885000E-03    1.0000001E-24
 -1.1880000E-03    1.0000001E-24
 -1.1875000E-03    1.0000002E-24
 -1.1870000E-03    1.0000003E-24
 -1.1865000E-03    1.0000005E-24
 -1.1860000E-03    1.0000010E-24
 -1.1854999E-03    1.0000022E-24
 -1.1849999E-03    1.0000048E-24
 -1.1845001E-03    1.0000099E-24
 -1.1840001E-03    1.0000192E-24
 -1.1835000E-03    1.0000335E-24
 -1.1830000E-03    1.0000483E-24
 -1.1825000E-03    1.0000418E-24
 -1.1820000E-03    9.9994579E-25
 -1.1815000E-03    9.9958064E-25
 -1.1810000E-03    9.9852327E-25
 -1.1805000E-03    9.9585110E-25
 -1.1800000E-03    9.8967708E-25
 -1.1795000E-03    9.7634849E-25
 -1.1790000E-03    9.4914147E-25
 -1.1785000E-03    8.9625850E-25
 -1.1780000E-03    7.9795415E-25
 -1.1775000E-03    6.2275352E-25
 -1.1770000E-03    3.2305363E-25
 -1.1765000E-03   -1.6892458E-25
 -1.1760000E-03   -9.4268622E-25
 -1.1755000E-03   -2.1044776E-24
 -1.1750000E-03   -3.7589561E-24
 -1.1745000E-03   -5.9669743E-24
 -1.1740000E-03   -8.6644143E-24
 -1.1735000E-03   -1.1522270E-23
 -1.1730000E-03   -1.3724526E-23
 -1.1725000E-03   -1.3639973E-23
 -1.1720000E-03   -8.3706441E-24
 -1.1715000E-03    6.8223949E-24
 -1.1710000E-03    3.9178796E-23
 -1.1704999E-03    9.9085701E-23
 -1.1699999E-03    2.0051906E-22
 -1.1695001E-03    3.6095645E-22
 -1.1690001E-03    6.0027059E-22
 -1.1685000E-03    9.3791972E-22
 -1.1680000E-03    1.3875565E-21
 -1.1675000E-03    1.9480279E-21
 -1.1670000E-03    2.5897084E-21
 -1.1665000E-03    3.2352983E-21
 -1.1660000E-03    3.7347661E-21
 -1.1655000E-03    3.8351583E-21
 -1.1650000E-03    3.1477215E-21
 -1.1645000E-03    1.1172944E-21
 -1.1640000E-03   -2.9977248E-21
 -1.1635000E-03   -1.0122395E-20
 -1.1630000E-03   -2.1322196E-20
 -1.1625000E-03   -3.7698469E-20
 -1.1620000E-03   -6.0197487E-20
 -1.1615000E-03   -8.9307505E-20
 -1.1610000E-03   -1.2462166E-19
 -1.1605000E-03   -1.6425473E-19
 -1.1600000E-03   -2.0412058E-19
 -1.1595000E-03   -2.3710794E-19
 -1.1590000E-03   -2.5223358E-19
 -1.1585000E-03   -2.3390928E-19
 -1.1580000E-03   -1.6152329E-19
 -1.1575000E-03   -9.6104913E-21
 -1.1570000E-03    2.5104761E-19
 -1.1565000E-03    6.5100009E-19
 -1.1560000E-03    1.2179729E-18
 -1.1555000E-03    1.9706180E-18
 -1.1549999E-03    2.9099296E-18
 -1.1544999E-03    4.0083224E-18
 -1.1540001E-03    5.1967444E-18
 -1.1535001E-03    6.3506928E-18
 -1.1530000E-03    7.2766789E-18
 -1.1525000E-03    7.7014171E-18
 -1.1520000E-03    7.2668619E-18
 -1.1515000E-03    5.5349558E-18
 -1.1510000E-03    2.0065423E-18
 -1.1505000E-03   -3.8408618E-18
 -1.1500000E-03   -1.2492130E-17
 -1.1495000E-03   -2.4307247E-17
 -1.1490000E-03   -3.9406676E-17
 -1.1485000E-03   -5.7531742E-17
 -1.1480000E-03   -7.7886916E-17
 -1.1475000E-03   -9.8976793E-17
 -1.1470000E-03   -1.1845713E-16
 -1.1465000E-03   -1.3302652E-16
 -1.1460000E-03   -1.3839184E-16
 -1.1455000E-03   -1.2934594E-16
 -1.1450000E-03   -9.9998380E-17
 -1.1445000E-03   -4.4198077E-17
 -1.1440000E-03    4.3821263E-17
 -1.1435000E-03    1.6855728E-16
 -1.1430000E-03    3.3212464E-16
 -1.1425000E-03    5.3295059E-16
 -1.1420000E-03    7.6436216E-16
 -1.1415000E-03    1.0131915E-15
 -1.1410000E-03    1.2585777E-15
 -1.1405000E-03    1.4711888E-15
 -1.1399999E-03    1.6131254E-15
 -1.1394999E-03    1.6387883E-15
 -1.1390001E-03    1.4969827E-15
 -1.1385001E-03    1.1344950E-15
 -1.1380001E-03    5.0128421E-16
 -1.1375000E-03   -4.4269629E-16
 -1.1370000E-03   -1.7192274E-15
 -1.1365000E-03   -3.3225041E-15
 -1.1360000E-03   -5.2094462E-15
 -1.1355000E-03   -7.2905930E-15
 -1.1350000E-03   -9.4228070E-15
 -1.1345000E-03   -1.1405238E-14
 -1.1340000E-03   -1.2980126E-14
 -1.1335000E-03   -1.3840017E-14
 -1.1330000E-03   -1.3642775E-14
 -1.1325000E-03   -1.2035395E-14
 -1.1320000E-03   -8.6869556E-15
 -1.1315000E-03   -3.3301592E-15
 -1.1310000E-03    4.1901576E-15
 -1.1305000E-03    1.3864507E-14
 -1.1300000E-03    2.5466483E-14
 -1.1295000E-03    3.8506311E-14
 -1.1290000E-03    5.2196918E-14
 -1.1285000E-03    6.5439834E-14
 -1.1280000E-03    7.6838418E-14
 -1.1275000E-03    8.4745199E-14
 -1.1270000E-03    8.7348524E-14
 -1.1265000E-03    8.2801143E-14
 -1.1260000E-03    6.9389712E-14
 -1.1255000E-03    4.5739705E-14
 -1.1250000E-03    1.1044963E-14
 -1.1244999E-03   -3.4694361E-14
 -1.1239999E-03   -9.0446964E-14
 -1.1235001E-03   -1.5396472E-13
 -1.1230001E-03   -2.2166528E-13
 -1.1225000E-03   -2.8861264E-13
 -1.1220000E-03   -3.4862323E-13
 -1.1215000E-03   -3.9451989E-13
 -1.1210000E-03   -4.1854665E-13
 -1.1205000E-03   -4.1294398E-13
 -1.1200000E-03   -3.7066913E-13
 -1.1195000E-03   -2.8622696E-13
 -1.1190000E-03   -1.5655744E-13
 -1.1185000E-03    1.8092564E-14
 -1.1180000E-03    2.3340092E-13
 -1.1175000E-03    4.8040424E-13
 -1.1170000E-03    7.4523585E-13
 -1.1165000E-03    1.0092627E-12
 -1.1160000E-03    1.2496991E-12
 -1.1155000E-03    1.4407455E-12
 -1.1150000E-03    1.5552607E-12
 -1.1145000E-03    1.5669226E-12
 -1.1140000E-03    1.4527813E-12
 -1.1135000E-03    1.1960412E-12
 -1.1130000E-03    7.8885883E-13
 -1.1125000E-03    2.3489167E-13
 -1.1120000E-03   -4.4869368E-13
 -1.1115000E-03   -1.2300565E-12
 -1.1110000E-03   -2.0626396E-12
 -1.1105000E-03   -2.8864784E-12
 -1.1100000E-03   -3.6310000E-12
 -1.1094999E-03   -4.2193402E-12
 -1.1089999E-03   -4.5740564E-12
 -1.1084999E-03   -4.6239622E-12
 -1.1080001E-03   -4.3116387E-12
 -1.1075001E-03   -3.6010411E-12
 -1.1070000E-03   -2.4844877E-12
 -1.1065000E-03   -9.8825559E-13
 -1.1060000E-03    8.2400081E-13
 -1.1055000E-03    2.8507179E-12
 -1.1050000E-03    4.9553391E-12
 -1.1045000E-03    6.9729860E-12
 -1.1040000E-03    8.7208973E-12
 -1.1035000E-03    1.0012254E-11
 -1.1030000E-03    1.0672631E-11
 -1.1025000E-03    1.0557902E-11
 -1.1020000E-03    9.5721079E-12
 -1.1015000E-03    7.6835257E-12
 -1.1010000E-03    4.9370729E-12
 -1.1005000E-03    1.4612358E-12
 -1.1000000E-03   -2.5320286E-12
 -1.0995000E-03   -6.7555302E-12
 -1.0990000E-03   -1.0863674E-11
 -1.0985000E-03   -1.4477536E-11
 -1.0980000E-03   -1.7216960E-11
 -1.0975000E-03   -1.8737487E-11
 -1.0970000E-03   -1.8769130E-11
 -1.0965000E-03   -1.7153301E-11
 -1.0960000E-03   -1.3873776E-11
 -1.0955000E-03   -9.0776145E-12
 -1.0950000E-03   -3.0822415E-12
 -1.0945000E-03    3.6341791E-12
 -1.0939999E-03    1.0460685E-11
 -1.0934999E-03    1.6699704E-11
 -1.0930001E-03    2.1629457E-11
 -1.0925001E-03    2.4578502E-11
 -1.0920000E-03    2.5006365E-11
 -1.0915000E-03    2.2582549E-11
 -1.0910000E-03    1.7255138E-11
 -1.0905000E-03    9.2998326E-12
 -1.0900000E-03   -6.5915930E-13
 -1.0895000E-03   -1.1663330E-11
 -1.0890000E-03   -2.2473594E-11
 -1.0885000E-03   -3.1664341E-11
 -1.0880000E-03   -3.7754494E-11
 -1.0875000E-03   -3.9367655E-11
 -1.0870000E-03   -3.5408950E-11
 -1.0865000E-03   -2.5242263E-11
 -1.0860000E-03   -8.8486492E-12
 -1.0855000E-03    1.3054484E-11
 -1.0850000E-03    3.8953278E-11
 -1.0845000E-03    6.6553311E-11
 -1.0840000E-03    9.2883319E-11
 -1.0835000E-03    1.1449117E-10
 -1.0830000E-03    1.2772787E-10
 -1.0825000E-03    1.2910495E-10
 -1.0820000E-03    1.1570092E-10
 -1.0815000E-03    8.5582770E-11
 -1.0810000E-03    3.8201501E-11
 -1.0805000E-03   -2.5283735E-11
 -1.0800000E-03   -1.0179858E-10
 -1.0795000E-03   -1.8630461E-10
 -1.0790000E-03   -2.7194075E-10
 -1.0784999E-03   -3.5037279E-10
 -1.0779999E-03   -4.1235060E-10
 -1.0775001E-03   -4.4845239E-10
 -1.0770001E-03   -4.4997203E-10
 -1.0765000E-03   -4.0988601E-10
 -1.0760000E-03   -3.2381753E-10
 -1.0755000E-03   -1.9090310E-10
 -1.0750000E-03   -1.4463328E-11
 -1.0745000E-03    1.9761760E-10
 -1.0740000E-03    4.3288323E-10
 -1.0735000E-03    6.7472300E-10
 -1.0730000E-03    9.0323909E-10
 -1.0725000E-03    1.0965445E-09
 -1.0720000E-03    1.2324292E-09
 -1.0715000E-03    1.2902899E-09
 -1.0710000E-03    1.2531767E-09
 -1.0705000E-03    1.1097834E-09
 -1.0700000E-03    8.5618712E-10
 -1.0695000E-03    4.9714699E-10
 -1.0690000E-03    4.6787366E-11
 -1.0685000E-03   -4.7146825E-10
 -1.0680000E-03   -1.0257944E-09
 -1.0675000E-03   -1.5776989E-09
 -1.0670000E-03   -2.0845279E-09
 -1.0665000E-03   -2.5025904E-09
 -1.0660000E-03   -2.7906739E-09
 -1.0655000E-03   -2.9136691E-09
 -1.0650000E-03   -2.8459768E-09
 -1.0645000E-03   -2.5743641E-09
 -1.0640000E-03   -2.0999600E-09
 -1.0634999E-03   -1.4391391E-09
 -1.0629999E-03   -6.2312822E-10
 -1.0625001E-03    3.0370939E-10
 -1.0620001E-03    1.2868324E-09
 -1.0615001E-03    2.2655042E-09
 -1.0610000E-03    3.1774601E-09
 -1.0605000E-03    3.9638199E-09
 -1.0600000E-03    4.5737534E-09
 -1.0595000E-03    4.9683919E-09
 -1.0590000E-03    5.1235372E-09
 -1.0585000E-03    5.0308149E-09
 -1.0580000E-03    4.6971023E-09
 -1.0575000E-03    4.1422328E-09
 -1.0570000E-03    3.3952259E-09
 -1.0565000E-03    2.4894973E-09
 -1.0560000E-03    1.4576923E-09
 -1.0555000E-03    3.2692365E-10
 -1.0550000E-03   -8.8476620E-10
 -1.0545000E-03   -2.1699496E-09
 -1.0540000E-03   -3.5307599E-09
 -1.0535000E-03   -4.9749138E-09
 -1.0530000E-03   -6.5088495E-09
 -1.0525000E-03   -8.1284490E-09
 -1.0520000E-03   -9.8082777E-09
 -1.0515000E-03   -1.1490688E-08
 -1.0510000E-03   -1.3076471E-08
 -1.0505000E-03   -1.4418928E-08
 -1.0500000E-03   -1.5323248E-08
 -1.0495000E-03   -1.5552789E-08
 -1.0490000E-03   -1.4843417E-08
 -1.0485000E-03   -1.2926297E-08
 -1.0479999E-03   -9.5585779E-09
 -1.0474999E-03   -4.5603610E-09
 -1.0470001E-03    2.1448148E-09
 -1.0465001E-03    1.0489761E-08
 -1.0460000E-03    2.0228349E-08
 -1.0455000E-03    3.0910279E-08
 -1.0450000E-03    4.1871122E-08
 -1.0445000E-03    5.2242271E-08
 -1.0440000E-03    6.0984419E-08
 -1.0435000E-03    6.6946399E-08
 -1.0430000E-03    6.8948928E-08
 -1.0425000E-03    6.5890305E-08
 -1.0420000E-03    5.6868103E-08
 -1.0415000E-03    4.1308144E-08
 -1.0410000E-03    1.9089658E-08
 -1.0405000E-03   -9.3464028E-09
 -1.0400000E-03   -4.2919574E-08
 -1.0395000E-03   -7.9876102E-08
 -1.0390000E-03   -1.1781091E-07
 -1.0385000E-03   -1.5375369E-07
 -1.0380000E-03   -1.8432320E-07
 -1.0375000E-03   -2.0594787E-07
 -1.0370000E-03   -2.1514450E-07
 -1.0365000E-03   -2.0883974E-07
 -1.0360000E-03   -1.8471263E-07
 -1.0355000E-03   -1.4153092E-07
 -1.0350000E-03   -7.9449293E-08
 -1.0345000E-03   -2.3695734E-10
 -1.0340000E-03    9.2598079E-08
 -1.0335000E-03    1.9381574E-07
 -1.0329999E-03    2.9660231E-07
 -1.0324999E-03    3.9289094E-07
 -1.0319999E-03    4.7384137E-07
 -1.0315001E-03    5.3046205E-07
 -1.0310001E-03    5.5434185E-07
 -1.0305000E-03    5.3844457E-07
 -1.0300000E-03    4.7790724E-07
 -1.0295000E-03    3.7077288E-07
 -1.0290000E-03    2.1858635E-07
 -1.0285000E-03    2.6781215E-08
 -1.0280000E-03   -1.9520462E-07
 -1.0275000E-03   -4.3413249E-07
 -1.0270000E-03   -6.7351345E-07
 -1.0265000E-03   -8.9450583E-07
 -1.0260000E-03   -1.0771322E-06
 -1.0255000E-03   -1.2017548E-06
 -1.0250000E-03   -1.2507199E-06
 -1.0245000E-03   -1.2100562E-06
 -1.0240000E-03   -1.0710904E-06
 -1.0235000E-03   -8.3183522E-07
 -1.0230000E-03   -4.9800553E-07
 -1.0225000E-03   -8.3532086E-08
 -1.0220000E-03    3.8953374E-07
 -1.0215000E-03    8.9178781E-07
 -1.0210000E-03    1.3879329E-06
 -1.0205000E-03    1.8388915E-06
 -1.0200000E-03    2.2044751E-06
 -1.0195000E-03    2.4464541E-06
 -1.0190000E-03    2.5318234E-06
 -1.0185000E-03    2.4360186E-06
 -1.0180000E-03    2.1458138E-06
 -1.0174999E-03    1.6616298E-06
 -1.0169999E-03    9.9900092E-07
 -1.0165001E-03    1.8898984E-07
 -1.0160001E-03   -7.2259382E-07
 -1.0155000E-03   -1.6772353E-06
 -1.0150000E-03   -2.6069804E-06
 -1.0145000E-03   -3.4387861E-06
 -1.0140000E-03   -4.0997170E-06
 -1.0135000E-03   -4.5226520E-06
 -1.0130000E-03   -4.6520900E-06
 -1.0125000E-03   -4.4496005E-06
 -1.0120000E-03   -3.8984504E-06
 -1.0115000E-03   -3.0069511E-06
 -1.0110000E-03   -1.8101483E-06
 -1.0105000E-03   -3.6955930E-07
 -1.0100000E-03    1.2291897E-06
 -1.0095000E-03    2.8808308E-06
 -1.0090000E-03    4.4668518E-06
 -1.0085000E-03    5.8634814E-06
 -1.0080000E-03    6.9507664E-06
 -1.0075000E-03    7.6221036E-06
 -1.0070000E-03    7.7935183E-06
 -1.0065000E-03    7.4119253E-06
 -1.0060000E-03    6.4616456E-06
 -1.0055000E-03    4.9685150E-06
 -1.0050000E-03    3.0010888E-06
 -1.0045000E-03    6.6861583E-07
 -1.0040000E-03   -1.8842901E-06
 -1.0035000E-03   -4.4861099E-06
 -1.0030000E-03   -6.9495618E-06
 -1.0025000E-03   -9.0847416E-06
 -1.0019999E-03   -1.0713359E-05
 -1.0014999E-03   -1.1683041E-05
 -1.0010001E-03   -1.1880551E-05
 -1.0005001E-03   -1.1242853E-05
 -1.0000000E-03   -9.7649845E-06
 -9.9950004E-04   -7.5039343E-06
 -9.9900004E-04   -4.5779857E-06
 -9.9850004E-04   -1.1612931E-06
 -9.9800003E-04    2.5261445E-06
 -9.9750003E-04    6.2325907E-06
 -9.9700002E-04    9.6918739E-06
 -9.9650002E-04    1.2642698E-05
 -9.9600002E-04    1.4848546E-05
 -9.9550001E-04    1.6116644E-05
 -9.9500001E-04    1.6314461E-05
 -9.9450001E-04    1.5382300E-05
 -9.9400000E-04    1.3340853E-05
 -9.9350000E-04    1.0292871E-05
 -9.9299999E-04    6.4185870E-06
 -9.9249999E-04    1.9649901E-06
 -9.9199999E-04   -2.7704439E-06
 -9.9149998E-04   -7.4604732E-06
 -9.9099998E-04   -1.1771796E-05
 -9.9049998E-04   -1.5389947E-05
 -9.8999997E-04   -1.8043449E-05
 -9.8949997E-04   -1.9525276E-05
 -9.8899996E-04   -1.9709827E-05
 -9.8849996E-04   -1.8563936E-05
 -9.8799996E-04   -1.6150896E-05
 -9.8749995E-04   -1.2626972E-05
 -9.8699995E-04   -8.2305896E-06
 -9.8649994E-04   -3.2648838E-06
 -9.8600006E-04    1.9250617E-06
 -9.8550005E-04    6.9784878E-06
 -9.8500005E-04    1.1546641E-05
 -9.8450005E-04    1.5319563E-05
 -9.8400004E-04    1.8049761E-05
 -9.8350004E-04    1.9570702E-05
 -9.8300003E-04    1.9808596E-05
 -9.8250003E-04    1.8786362E-05
 -9.8200003E-04    1.6619462E-05
 -9.8150002E-04    1.3503971E-05
 -9.8100002E-04    9.6979193E-06
 -9.8050002E-04    5.4976385E-06
 -9.8000001E-04    1.2112571E-06
 -9.7950001E-04   -2.8681638E-06
 -9.7900000E-04   -6.4873425E-06
 -9.7850000E-04   -9.4529705E-06
 -9.7800000E-04   -1.1645442E-05
 -9.7749999E-04   -1.3024767E-05
 -9.7699999E-04   -1.3628106E-05
 -9.7649998E-04   -1.3559142E-05
 -9.7599998E-04   -1.2970429E-05
 -9.7549998E-04   -1.2040545E-05
 -9.7499997E-04   -1.0948520E-05
 -9.7450003E-04   -9.8484024E-06
 -9.7400002E-04   -8.8468914E-06
 -9.7350002E-04   -7.9868014E-06
 -9.7300002E-04   -7.2386083E-06
 -9.7250001E-04   -6.5015815E-06
 -9.7200001E-04   -5.6150284E-06
 -9.7150001E-04   -4.3791033E-06
 -9.7100000E-04   -2.5835202E-06
 -9.7050000E-04   -4.1500407E-08
 -9.6999999E-04    3.3745307E-06
 -9.6949999E-04    7.6995011E-06
 -9.6899999E-04    1.2848644E-05
 -9.6849998E-04    1.8600729E-05
 -9.6799998E-04    2.4594745E-05
 -9.6749997E-04    3.0342160E-05
 -9.6700003E-04    3.5255442E-05
 -9.6650003E-04    3.8691978E-05
 -9.6600002E-04    4.0010833E-05
 -9.6550002E-04    3.8638242E-05
 -9.6500001E-04    3.4136352E-05
 -9.6450001E-04    2.6268863E-05
 -9.6400001E-04    1.5056812E-05
 -9.6350000E-04    8.1785277E-07
 -9.6300000E-04   -1.5816668E-05
 -9.6249999E-04   -3.3911147E-05
 -9.6199999E-04   -5.2263982E-05
 -9.6149999E-04   -6.9474539E-05
 -9.6099998E-04   -8.4036161E-05
 -9.6049998E-04   -9.4449766E-05
 -9.5999998E-04   -9.9350575E-05
 -9.5949997E-04   -9.7638011E-05
 -9.5900003E-04   -8.8598208E-05
 -9.5850002E-04   -7.2007671E-05
 -9.5800002E-04   -4.8207436E-05
 -9.5750001E-04   -1.8138551E-05
 -9.5700001E-04    1.6667953E-05
 -9.5650001E-04    5.4150041E-05
 -9.5600000E-04    9.1822367E-05
 -9.5550000E-04    1.2692837E-04
 -9.5500000E-04    1.5662827E-04
 -9.5449999E-04    1.7821103E-04
 -9.5399999E-04    1.8931515E-04
 -9.5349998E-04    1.8814144E-04
 -9.5299998E-04    1.7364002E-04
 -9.5249998E-04    1.4565485E-04
 -9.5199997E-04    1.0501077E-04
 -9.5150003E-04    5.3532065E-05
 -9.5100002E-04   -6.0143416E-06
 -9.5050002E-04   -7.0051916E-05
 -9.5000002E-04   -1.3439909E-04
 -9.4950001E-04   -1.9453444E-04
 -9.4900001E-04   -2.4590633E-04
 -9.4850000E-04   -2.8426605E-04
 -9.4800000E-04   -3.0600058E-04
 -9.4750000E-04   -3.0843951E-04
 -9.4699999E-04   -2.9011141E-04
 -9.4649999E-04   -2.5092647E-04
 -9.4599999E-04   -1.9226845E-04
 -9.4549998E-04   -1.1698240E-04
 -9.4499998E-04   -2.9254508E-05
 -9.4449997E-04    6.5613589E-05
 -9.4400003E-04    1.6152431E-04
 -9.4350002E-04    2.5197858E-04
 -9.4300002E-04    3.3051937E-04
 -9.4250002E-04    3.9119422E-04
 -9.4200001E-04    4.2900263E-04
 -9.4150001E-04    4.4029532E-04
 -9.4100001E-04    4.2309315E-04
 -9.4050000E-04    3.7729932E-04
 -9.4000000E-04    3.0478436E-04
 -9.3949999E-04    2.0933317E-04
 -9.3899999E-04    9.6452539E-05
 -9.3849999E-04   -2.6951997E-05
 -9.3799998E-04   -1.5301062E-04
 -9.3749998E-04   -2.7340723E-04
 -9.3699998E-04   -3.7994591E-04
 -9.3649997E-04   -4.6512607E-04
 -9.3600003E-04   -5.2268466E-04
 -9.3550002E-04   -5.4806541E-04
 -9.3500002E-04   -5.3877872E-04
 -9.3450001E-04   -4.9462391E-04
 -9.3400001E-04   -4.1775417E-04
 -9.3350001E-04   -3.1257642E-04
 -9.3300000E-04   -1.8548931E-04
 -9.3250000E-04   -4.4476070E-05
 -9.3200000E-04    1.0142140E-04
 -9.3149999E-04    2.4271099E-04
 -9.3099999E-04    3.7009877E-04
 -9.3049998E-04    4.7513068E-04
 -9.2999998E-04    5.5078173E-04
 -9.2949998E-04    5.9194904E-04
 -9.2899997E-04    5.9581269E-04
 -9.2850003E-04    5.6203781E-04
 -9.2800002E-04    4.9280160E-04
 -9.2750002E-04    3.9264397E-04
 -9.2700002E-04    2.6815123E-04
 -9.2650001E-04    1.2749650E-04
 -9.2600001E-04   -2.0129683E-05
 -9.2550000E-04   -1.6515733E-04
 -9.2500000E-04   -2.9829631E-04
 -9.2450000E-04   -4.1116890E-04
 -9.2399999E-04   -4.9687031E-04
 -9.2349999E-04   -5.5041583E-04
 -9.2299999E-04   -5.6904502E-04
 -9.2249998E-04   -5.5236125E-04
 -9.2199998E-04   -5.0230004E-04
 -9.2149997E-04   -4.2293180E-04
 -9.2100003E-04   -3.2011681E-04
 -9.2050002E-04   -2.0104283E-04
 -9.2000002E-04   -7.3681513E-05
 -9.1950002E-04    5.3791449E-05
 -9.1900001E-04    1.7356820E-04
 -9.1850001E-04    2.7872890E-04
 -9.1800001E-04    3.6367189E-04
 -9.1750000E-04    4.2442407E-04
 -9.1700000E-04    4.5881257E-04
 -9.1649999E-04    4.6648932E-04
 -9.1599999E-04    4.4881518E-04
 -9.1549999E-04    4.0861923E-04
 -9.1499998E-04    3.4986093E-04
 -9.1449998E-04    2.7722921E-04
 -9.1399997E-04    1.9571732E-04
 -9.1349997E-04    1.1021325E-04
 -9.1300003E-04    2.5142121E-05
 -9.1250002E-04   -5.5808669E-05
 -9.1200002E-04   -1.2985992E-04
 -9.1150001E-04   -1.9519620E-04
 -9.1100001E-04   -2.5090747E-04
 -9.1050001E-04   -2.9682988E-04
 -9.1000000E-04   -3.3330935E-04
 -9.0950000E-04   -3.6091934E-04
 -9.0899999E-04   -3.8017015E-04
 -9.0849999E-04   -3.9124762E-04
 -9.0799999E-04   -3.9381761E-04
 -9.0749998E-04   -3.8692582E-04
 -9.0699998E-04   -3.6901326E-04
 -9.0649998E-04   -3.3805482E-04
 -9.0599997E-04   -2.9181622E-04
 -9.0550003E-04   -2.2820928E-04
 -9.0500002E-04   -1.4571329E-04
 -9.0450002E-04   -4.3820175E-05
 -9.0400001E-04    7.6546108E-05
 -9.0350001E-04    2.1268822E-04
 -9.0300001E-04    3.5992110E-04
 -9.0250000E-04    5.1152729E-04
 -9.0200000E-04    6.5891095E-04
 -9.0150000E-04    7.9196499E-04
 -9.0099999E-04    8.9964556E-04
 -9.0049999E-04    9.7072864E-04
 -8.9999998E-04    9.9470408E-04
 -8.9949998E-04    9.6274330E-04
 -8.9899998E-04    8.6866698E-04
 -8.9849997E-04    7.0982601E-04
 -8.9800003E-04    4.8781213E-04
 -8.9750002E-04    2.0891754E-04
 -8.9700002E-04   -1.1572293E-04
 -8.9650002E-04   -4.7035425E-04
 -8.9600001E-04   -8.3520944E-04
 -8.9550001E-04   -1.1874957E-03
 -8.9500000E-04   -1.5027201E-03
 -8.9450000E-04   -1.7562829E-03
 -8.9400000E-04   -1.9252432E-03
 -8.9349999E-04   -1.9901358E-03
 -8.9299999E-04   -1.9367050E-03
 -8.9249999E-04   -1.7574178E-03
 -8.9199998E-04   -1.4526210E-03
 -8.9149998E-04   -1.0312271E-03
 -8.9099997E-04   -5.1083695E-04
 -8.9050003E-04    8.2754683E-05
 -8.9000002E-04    7.1668380E-04
 -8.8950002E-04    1.3527382E-03
 -8.8900002E-04    1.9495940E-03
 -8.8850001E-04    2.4654425E-03
 -8.8800001E-04    2.8608472E-03
 -8.8750001E-04    3.1016350E-03
 -8.8700000E-04    3.1616243E-03
 -8.8650000E-04    3.0249725E-03
 -8.8599999E-04    2.6879581E-03
 -8.8549999E-04    2.1600300E-03
 -8.8499999E-04    1.4640004E-03
 -8.8449998E-04    6.3532073E-04
 -8.8399998E-04   -2.7956947E-04
 -8.8349998E-04   -1.2257545E-03
 -8.8299997E-04   -2.1430897E-03
 -8.8250003E-04   -2.9699954E-03
 -8.8200002E-04   -3.6475614E-03
 -8.8150002E-04   -4.1236905E-03
 -8.8100001E-04   -4.3569896E-03
 -8.8050001E-04   -4.3201307E-03
 -8.8000001E-04   -4.0024086E-03
 -8.7950000E-04   -3.4112858E-03
 -8.7900000E-04   -2.5727670E-03
 -8.7850000E-04   -1.5305158E-03
 -8.7799999E-04   -3.4372514E-04
 -8.7749999E-04    9.1617403E-04
 -8.7699998E-04    2.1697835E-03
 -8.7649998E-04    3.3347362E-03
 -8.7599998E-04    4.3311086E-03
 -8.7549997E-04    5.0868881E-03
 -8.7500003E-04    5.5431197E-03
 -8.7450002E-04    5.6583644E-03
 -8.7400002E-04    5.4121423E-03
 -8.7350002E-04    4.8070727E-03
 -8.7300001E-04    3.8695335E-03
 -8.7250001E-04    2.6487289E-03
 -8.7200000E-04    1.2141842E-03
 -8.7150000E-04   -3.4821709E-04
 -8.7100000E-04   -1.9414268E-03
 -8.7049999E-04   -3.4633405E-03
 -8.6999999E-04   -4.8134304E-03
 -8.6949999E-04   -5.8994642E-03
 -8.6899998E-04   -6.6438550E-03
 -8.6849998E-04   -6.9891973E-03
 -8.6799997E-04   -6.9025946E-03
 -8.6750003E-04   -6.3784462E-03
 -8.6700002E-04   -5.4394775E-03
 -8.6650002E-04   -4.1358885E-03
 -8.6600002E-04   -2.5426487E-03
 -8.6550001E-04   -7.5507973E-04
 -8.6500001E-04    1.1170170E-03
 -8.6450001E-04    2.9563059E-03
 -8.6400000E-04    4.6454933E-03
 -8.6350000E-04    6.0750283E-03
 -8.6299999E-04    7.1504111E-03
 -8.6249999E-04    7.7986047E-03
 -8.6199999E-04    7.9731094E-03
 -8.6149998E-04    7.6573309E-03
 -8.6099998E-04    6.8660066E-03
 -8.6049997E-04    5.6445561E-03
 -8.5999997E-04    4.0663909E-03
 -8.5950003E-04    2.2283439E-03
 -8.5900002E-04    2.4450748E-04
 -8.5850002E-04   -1.7611093E-03
 -8.5800001E-04   -3.6626190E-03
 -8.5750001E-04   -5.3404509E-03
 -8.5700001E-04   -6.6891490E-03
 -8.5650000E-04   -7.6242466E-03
 -8.5600000E-04   -8.0877589E-03
 -8.5549999E-04   -8.0519086E-03
 -8.5499999E-04   -7.5208554E-03
 -8.5449999E-04   -6.5302970E-03
 -8.5399998E-04   -5.1449924E-03
 -8.5349998E-04   -3.4543765E-03
 -8.5299998E-04   -1.5665729E-03
 -8.5249997E-04    3.9877530E-04
 -8.5200003E-04    2.3183655E-03
 -8.5150002E-04    4.0732478E-03
 -8.5100002E-04    5.5564460E-03
 -8.5050002E-04    6.6796797E-03
 -8.5000001E-04    7.3787449E-03
 -8.4950001E-04    7.6172105E-03
 -8.4900000E-04    7.3882104E-03
 -8.4850000E-04    6.7142500E-03
 -8.4800000E-04    5.6450800E-03
 -8.4749999E-04    4.2538238E-03
 -8.4699999E-04    2.6316775E-03
 -8.4649998E-04    8.8156486E-04
 -8.4599998E-04   -8.8877534E-04
 -8.4549998E-04   -2.5737844E-03
 -8.4499997E-04   -4.0766802E-03
 -8.4450003E-04   -5.3152149E-03
 -8.4400002E-04   -6.2262286E-03
 -8.4350002E-04   -6.7687384E-03
 -8.4300002E-04   -6.9254125E-03
 -8.4250001E-04   -6.7023961E-03
 -8.4200001E-04   -6.1275992E-03
 -8.4150000E-04   -5.2476400E-03
 -8.4100000E-04   -4.1237427E-03
 -8.4050000E-04   -2.8269456E-03
 -8.3999999E-04   -1.4330216E-03
 -8.3949999E-04   -1.7486283E-05
 -8.3899999E-04    1.3489299E-03
 -8.3849998E-04    2.6040501E-03
 -8.3799998E-04    3.6970379E-03
 -8.3749997E-04    4.5900745E-03
 -8.3700003E-04    5.2589080E-03
 -8.3650002E-04    5.6923432E-03
 -8.3600002E-04    5.8908453E-03
 -8.3550002E-04    5.8644852E-03
 -8.3500001E-04    5.6305090E-03
 -8.3450001E-04    5.2108173E-03
 -8.3400001E-04    4.6296511E-03
 -8.3350000E-04    3.9117080E-03
 -8.3300000E-04    3.0808765E-03
 -8.3249999E-04    2.1596816E-03
 -8.3199999E-04    1.1694441E-03
 -8.3149999E-04    1.3106906E-04
 -8.3099998E-04   -9.3370117E-04
 -8.3049998E-04   -2.0008066E-03
 -8.2999998E-04   -3.0424295E-03
 -8.2949997E-04   -4.0258821E-03
 -8.2900003E-04   -4.9130837E-03
 -8.2850002E-04   -5.6608473E-03
 -8.2800002E-04   -6.2221051E-03
 -8.2750001E-04   -6.5481202E-03
 -8.2700001E-04   -6.5916143E-03
 -8.2650001E-04   -6.3106245E-03
 -8.2600000E-04   -5.6728129E-03
 -8.2550000E-04   -4.6598539E-03
 -8.2500000E-04   -3.2714815E-03
 -8.2449999E-04   -1.5287509E-03
 -8.2399999E-04    5.2390952E-04
 -8.2349998E-04    2.8182096E-03
 -8.2299998E-04    5.2633374E-03
 -8.2249998E-04    7.7492483E-03
 -8.2199997E-04    1.0151879E-02
 -8.2150003E-04    1.2340079E-02
 -8.2100002E-04    1.4183893E-02
 -8.2050002E-04    1.5563695E-02
 -8.2000002E-04    1.6379530E-02
 -8.1950001E-04    1.6559944E-02
 -8.1900001E-04    1.6069613E-02
 -8.1850000E-04    1.4915030E-02
 -8.1800000E-04    1.3147657E-02
 -8.1750000E-04    1.0864133E-02
 -8.1699999E-04    8.2032075E-03
 -8.1649999E-04    5.3394283E-03
 -8.1599999E-04    2.4737723E-03
 -8.1549998E-04   -1.7830799E-04
 -8.1499998E-04   -2.4007254E-03
 -8.1449997E-04   -3.9916136E-03
 -8.1400003E-04   -4.7781817E-03
 -8.1350002E-04   -4.6304837E-03
 -8.1300002E-04   -3.4730523E-03
 -8.1250002E-04   -1.2934169E-03
 -8.1200001E-04    1.8532830E-03
 -8.1150001E-04    5.8441493E-03
 -8.1100001E-04    1.0493093E-02
 -8.1050000E-04    1.5560066E-02
 -8.1000000E-04    2.0764517E-02
 -8.0949999E-04    2.5802374E-02
 -8.0899999E-04    3.0365499E-02
 -8.0849999E-04    3.4162384E-02
 -8.0799998E-04    3.6938671E-02
 -8.0749998E-04    3.8496088E-02
 -8.0699997E-04    3.8708381E-02
 -8.0649997E-04    3.7532996E-02
 -8.0600003E-04    3.5017565E-02
 -8.0550002E-04    3.1300500E-02
 -8.0500002E-04    2.6605465E-02
 -8.0450001E-04    2.1229818E-02
 -8.0400001E-04    1.5527694E-02
 -8.0350001E-04    9.8886248E-03
 -8.0300000E-04    4.7130496E-03
 -8.0250000E-04    3.8629211E-04
 -8.0200000E-04   -2.7472738E-03
 -8.0149999E-04   -4.4081043E-03
 -8.0099999E-04   -4.4017308E-03
 -8.0049998E-04   -2.6339048E-03
 -7.9999998E-04    8.8052673E-04
 -7.9949998E-04    6.0157524E-03
 -7.9899997E-04    1.2540435E-02
 -7.9850003E-04    2.0130247E-02
 -7.9800002E-04    2.8386809E-02
 -7.9750002E-04    3.6861882E-02
 -7.9700002E-04    4.5085289E-02
 -7.9650001E-04    5.2594773E-02
 -7.9600001E-04    5.8965813E-02
 -7.9550000E-04    6.3839391E-02
 -7.9500000E-04    6.6945910E-02
 -7.9450000E-04    6.8123475E-02
 -7.9399999E-04    6.7329444E-02
 -7.9349999E-04    6.4644270E-02
 -7.9299998E-04    6.0267355E-02
 -7.9249998E-04    5.4505173E-02
 -7.9199998E-04    4.7752317E-02
 -7.9149997E-04    4.0466789E-02
 -7.9100003E-04    3.3141024E-02
 -7.9050002E-04    2.6270673E-02
 -7.9000002E-04    2.0323090E-02
 -7.8950002E-04    1.5707707E-02
 -7.8900001E-04    1.2750171E-02
 -7.8850001E-04    1.1671986E-02
 -7.8800000E-04    1.2576976E-02
 -7.8750000E-04    1.5445421E-02
 -7.8700000E-04    2.0136243E-02
 -7.8649999E-04    2.6397016E-02
 -7.8599999E-04    3.3881083E-02
 -7.8549999E-04    4.2170599E-02
 -7.8499998E-04    5.0803889E-02
 -7.8449998E-04    5.9305299E-02
 -7.8399997E-04    6.7215487E-02
 -7.8350003E-04    7.4120171E-02
 -7.8300002E-04    7.9675429E-02
 -7.8250002E-04    8.3627932E-02
 -7.8200002E-04    8.5828848E-02
 -7.8150001E-04    8.6240612E-02
 -7.8100001E-04    8.4936261E-02
 -7.8050001E-04    8.2091510E-02
 -7.8000000E-04    7.7970333E-02
 -7.7950000E-04    7.2905160E-02
 -7.7899999E-04    6.7273080E-02
 -7.7849999E-04    6.1469980E-02
 -7.7799999E-04    5.5884272E-02
 -7.7749998E-04    5.0872117E-02
 -7.7699998E-04    4.6735778E-02
 -7.7649998E-04    4.3706562E-02
 -7.7599997E-04    4.1933294E-02
 -7.7550003E-04    4.1477017E-02
 -7.7500002E-04    4.2312045E-02
 -7.7450002E-04    4.4332992E-02
 -7.7400001E-04    4.7367111E-02
 -7.7350001E-04    5.1190738E-02
 -7.7300001E-04    5.5548489E-02
 -7.7250000E-04    6.0173668E-02
 -7.7200000E-04    6.4808227E-02
 -7.7150000E-04    6.9220804E-02
 -7.7099999E-04    7.3221527E-02
 -7.7049999E-04    7.6672561E-02
 -7.6999998E-04    7.9493679E-02
 -7.6949998E-04    8.1662767E-02
 -7.6899998E-04    8.3211325E-02
 -7.6849997E-04    8.4215686E-02
 -7.6800003E-04    8.4784746E-02
 -7.6750002E-04    8.5045658E-02
 -7.6700002E-04    8.5128583E-02
 -7.6650002E-04    8.5152194E-02
 -7.6600001E-04    8.5211046E-02
 -7.6550001E-04    8.5366137E-02
 -7.6500000E-04    8.5639380E-02
 -7.6450000E-04    8.6012550E-02
 -7.6400000E-04    8.6430803E-02
 -7.6349999E-04    8.6810298E-02
 -7.6299999E-04    8.7049395E-02
 -7.6249999E-04    8.7042131E-02
 -7.6199998E-04    8.6692840E-02
 -7.6149998E-04    8.5930400E-02
 -7.6099997E-04    8.4720604E-02
 -7.6050003E-04    8.3075486E-02
 -7.6000002E-04    8.1058420E-02
 -7.5950002E-04    7.8784212E-02
 -7.5900002E-04    7.6414108E-02
 -7.5850001E-04    7.4145615E-02
 -7.5800001E-04    7.2198011E-02
 -7.5750001E-04    7.0794456E-02
 -7.5700000E-04    7.0142262E-02
 -7.5650000E-04    7.0412882E-02
 -7.5599999E-04    7.1723409E-02
 -7.5549999E-04    7.4121475E-02
 -7.5499999E-04    7.7574871E-02
 -7.5449998E-04    8.1967242E-02
 -7.5399998E-04    8.7100610E-02
 -7.5349997E-04    9.2704870E-02
 -7.5299997E-04    9.8453969E-02
 -7.5250003E-04    0.1039878    
 -7.5200002E-04    0.1089383    
 -7.5150002E-04    0.1129578    
 -7.5100001E-04    0.1157480    
 -7.5050001E-04    0.1170861    
 -7.5000001E-04    0.1168470    
 -7.4950000E-04    0.1150188    
 -7.4900000E-04    0.1117107    
 -7.4850000E-04    0.1071517    
 -7.4799999E-04    0.1016796    
 -7.4749999E-04    9.5721431E-02
 -7.4699998E-04    8.9766301E-02
 -7.4649998E-04    8.4331356E-02
 -7.4599998E-04    7.9924665E-02