 -1.2000001E-03    1.0000000E-24
 -1.1995001E-03    1.0000000E-24
 -1.1990000E-03    1.0000000E-24
 -1.1985000E-03    1.0000000E-24
 -1.1980000E-03    1.0000000E-24
 -1.1975000E-03    1.0000000E-24
 -1.1970000E-03    1.0000000E-24
 -1.1965000E-03    1.6764065E-24
 -1.1960000E-03    4.2960316E-21
 -1.1955000E-03    6.5949960E-20
 -1.1950000E-03    5.2825641E-19
 -1.1945000E-03    2.9263965E-18
 -1.1940000E-03    1.2541462E-17
 -1.1935000E-03    4.4061810E-17
 -1.1930000E-03    1.3109521E-16
 -1.1925000E-03    3.3578382E-16
 -1.1920000E-03    7.4177200E-16
 -1.1915000E-03    1.3852836E-15
 -1.1910000E-03    2.0269268E-15
 -1.1905000E-03    1.5847239E-15
 -1.1900000E-03   -3.0623223E-15
 -1.1895000E-03   -1.9315009E-14
 -1.1890000E-03   -6.2650826E-14
 -1.1885000E-03   -1.6248577E-13
 -1.1880000E-03   -3.7039959E-13
 -1.1875000E-03   -7.7046849E-13
 -1.1870000E-03   -1.4904094E-12
 -1.1865000E-03   -2.7106054E-12
 -1.1860000E-03   -4.6658419E-12
 -1.1854999E-03   -7.6318899E-12
 -1.1849999E-03   -1.1886324E-11
 -1.1845001E-03   -1.7630909E-11
 -1.1840001E-03   -2.4862484E-11
 -1.1835000E-03   -3.3181975E-11
 -1.1830000E-03   -4.1538308E-11
 -1.1825000E-03   -4.7916962E-11
 -1.1820000E-03   -4.9002535E-11
 -1.1815000E-03   -3.9870753E-11
 -1.1810000E-03   -1.3796225E-11
 -1.1805000E-03    3.7705710E-11
 -1.1800000E-03    1.2445744E-10
 -1.1795000E-03    2.5665789E-10
 -1.1790000E-03    4.4322929E-10
 -1.1785000E-03    6.8936185E-10
 -1.1780000E-03    9.9322872E-10
 -1.1775000E-03    1.3419772E-09
 -1.1770000E-03    1.7072840E-09
 -1.1765000E-03    2.0409852E-09
 -1.1760000E-03    2.2715390E-09
 -1.1755000E-03    2.3023117E-09
 -1.1750000E-03    2.0128710E-09
 -1.1745000E-03    1.2645465E-09
 -1.1740000E-03   -8.8562463E-11
 -1.1735000E-03   -2.1822479E-09
 -1.1730000E-03   -5.1181961E-09
 -1.1725000E-03   -8.9338528E-09
 -1.1720000E-03   -1.3567763E-08
 -1.1715000E-03   -1.8823330E-08
 -1.1710000E-03   -2.4335312E-08
 -1.1704999E-03   -2.9544722E-08
 -1.1699999E-03   -3.3688810E-08
 -1.1695001E-03   -3.5813311E-08
 -1.1690001E-03   -3.4813787E-08
 -1.1685000E-03   -2.9511570E-08
 -1.1680000E-03   -1.8767208E-08
 -1.1675000E-03   -1.6305499E-09
 -1.1670000E-03    2.2478481E-08
 -1.1665000E-03    5.3570115E-08
 -1.1660000E-03    9.0884015E-08
 -1.1655000E-03    1.3271151E-07
 -1.1650000E-03    1.7626947E-07
 -1.1645000E-03    2.1765722E-07
 -1.1640000E-03    2.5192728E-07
 -1.1635000E-03    2.7329637E-07
 -1.1630000E-03    2.7551442E-07
 -1.1625000E-03    2.5239535E-07
 -1.1620000E-03    1.9849573E-07
 -1.1615000E-03    1.0990620E-07
 -1.1610000E-03   -1.4902048E-08
 -1.1605000E-03   -1.7425577E-07
 -1.1600000E-03   -3.6258155E-07
 -1.1595000E-03   -5.6994054E-07
 -1.1590000E-03   -7.8190880E-07
 -1.1585000E-03   -9.7990312E-07
 -1.1580000E-03   -1.1420303E-06
 -1.1575000E-03   -1.2444949E-06
 -1.1570000E-03   -1.2635486E-06
 -1.1565000E-03   -1.1779009E-06
 -1.1560000E-03   -9.7143720E-07
 -1.1555000E-03   -6.3602545E-07
 -1.1549999E-03   -1.7412719E-07
 -1.1544999E-03    3.9910816E-07
 -1.1540001E-03    1.0546069E-06
 -1.1535001E-03    1.7493107E-06
 -1.1530000E-03    2.4275562E-06
 -1.1525000E-03    3.0240506E-06
 -1.1520000E-03    3.4684681E-06
 -1.1515000E-03    3.6915144E-06
 -1.1510000E-03    3.6321151E-06
 -1.1505000E-03    3.2451997E-06
 -1.1500000E-03    2.5093700E-06
 -1.1495000E-03    1.4336199E-06
 -1.1490000E-03    6.2205224E-08
 -1.1485000E-03   -1.5232141E-06
 -1.1480000E-03   -3.2049179E-06
 -1.1475000E-03   -4.8344846E-06
 -1.1470000E-03   -6.2423646E-06
 -1.1465000E-03   -7.2514604E-06
 -1.1460000E-03   -7.6940260E-06
 -1.1455000E-03   -7.4307336E-06
 -1.1450000E-03   -6.3702878E-06
 -1.1445000E-03   -4.4876319E-06
 -1.1440000E-03   -1.8385665E-06
 -1.1435000E-03    1.4314057E-06
 -1.1430000E-03    5.0859803E-06
 -1.1425000E-03    8.8062070E-06
 -1.1420000E-03    1.2208703E-05
 -1.1415000E-03    1.4873804E-05
 -1.1410000E-03    1.6382477E-05
 -1.1405000E-03    1.6359701E-05
 -1.1399999E-03    1.4520940E-05
 -1.1394999E-03    1.0717432E-05
 -1.1390001E-03    4.9754567E-06
 -1.1385001E-03   -2.4755220E-06
 -1.1380001E-03   -1.1190561E-05
 -1.1375000E-03   -2.0516718E-05
 -1.1370000E-03   -2.9622835E-05
 -1.1365000E-03   -3.7552247E-05
 -1.1360000E-03   -4.3296830E-05
 -1.1355000E-03   -4.5888421E-05
 -1.1350000E-03   -4.4501066E-05
 -1.1345000E-03   -3.8555714E-05
 -1.1340000E-03   -2.7817152E-05
 -1.1335000E-03   -1.2472409E-05
 -1.1330000E-03    6.8201102E-06
 -1.1325000E-03    2.8919996E-05
 -1.1320000E-03    5.2239626E-05
 -1.1315000E-03    7.4827651E-05
 -1.1310000E-03    9.4500247E-05
 -1.1305000E-03    1.0901409E-04
 -1.1300000E-03    1.1627029E-04
 -1.1295000E-03    1.1453369E-04
 -1.1290000E-03    1.0264837E-04
 -1.1285000E-03    8.0227954E-05
 -1.1280000E-03    4.7798683E-05
 -1.1275000E-03    6.8750833E-06
 -1.1270000E-03   -4.0048217E-05
 -1.1265000E-03   -8.9598878E-05
 -1.1260000E-03   -1.3772601E-04
 -1.1255000E-03   -1.7998941E-04
 -1.1250000E-03   -2.1192295E-04
 -1.1244999E-03   -2.2944644E-04
 -1.1239999E-03   -2.2929256E-04
 -1.1235001E-03   -2.0941035E-04
 -1.1230001E-03   -1.6930308E-04
 -1.1225000E-03   -1.1026067E-04
 -1.1220000E-03   -3.5451812E-05
 -1.1215000E-03    5.0150167E-05
 -1.1210000E-03    1.4001994E-04
 -1.1205000E-03    2.2650829E-04
 -1.1200000E-03    3.0142532E-04
 -1.1195000E-03    3.5674081E-04
 -1.1190000E-03    3.8534924E-04
 -1.1185000E-03    3.8183265E-04
 -1.1180000E-03    3.4315031E-04
 -1.1175000E-03    2.6918031E-04
 -1.1170000E-03    1.6304602E-04
 -1.1165000E-03    3.1172956E-05
 -1.1160000E-03   -1.1695825E-04
 -1.1155000E-03   -2.6937225E-04
 -1.1150000E-03   -4.1245241E-04
 -1.1145000E-03   -5.3203746E-04
 -1.1140000E-03   -6.1468320E-04
 -1.1135000E-03   -6.4898643E-04
 -1.1130000E-03   -6.2685285E-04
 -1.1125000E-03   -5.4458313E-04
 -1.1120000E-03   -4.0365694E-04
 -1.1115000E-03   -2.1110948E-04
 -1.1110000E-03    2.0573692E-05
 -1.1105000E-03    2.7408233E-04
 -1.1100000E-03    5.2841863E-04
 -1.1094999E-03    7.6048844E-04
 -1.1089999E-03    9.4704016E-04
 -1.1084999E-03    1.0668021E-03
 -1.1080001E-03    1.1026356E-03
 -1.1075001E-03    1.0435039E-03
 -1.1070000E-03    8.8605285E-04
 -1.1065000E-03    6.3562184E-04
 -1.1060000E-03    3.0653563E-04
 -1.1055000E-03   -7.8414094E-05
 -1.1050000E-03   -4.8932212E-04
 -1.1045000E-03   -8.9130522E-04
 -1.1040000E-03   -1.2472891E-03
 -1.1035000E-03   -1.5212428E-03
 -1.1030000E-03   -1.6815959E-03
 -1.1025000E-03   -1.7045359E-03
 -1.1020000E-03   -1.5768633E-03
 -1.1015000E-03   -1.2981039E-03
 -1.1010000E-03   -8.8161393E-04
 -1.1005000E-03   -3.5449103E-04
 -1.1000000E-03    2.4379970E-04
 -1.0995000E-03    8.6406432E-04
 -1.0990000E-03    1.4511404E-03
 -1.0985000E-03    1.9485202E-03
 -1.0980000E-03    2.3034746E-03
 -1.0975000E-03    2.4722412E-03
 -1.0970000E-03    2.4247963E-03
 -1.0965000E-03    2.1487337E-03
 -1.0960000E-03    1.6518137E-03
 -1.0955000E-03    9.6284621E-04
 -1.0950000E-03    1.3068486E-04
 -1.0945000E-03   -7.7871513E-04
 -1.0939999E-03   -1.6870574E-03
 -1.0934999E-03   -2.5099814E-03
 -1.0930001E-03   -3.1643889E-03
 -1.0925001E-03   -3.5762258E-03
 -1.0920000E-03   -3.6880248E-03
 -1.0915000E-03   -3.4655028E-03
 -1.0910000E-03   -2.9025213E-03
 -1.0905000E-03   -2.0238338E-03
 -1.0900000E-03   -8.8519981E-04
 -1.0895000E-03    4.2934684E-04
 -1.0890000E-03    1.8130282E-03
 -1.0885000E-03    3.1443560E-03
 -1.0880000E-03    4.2971121E-03
 -1.0875000E-03    5.1515079E-03
 -1.0870000E-03    5.6055812E-03
 -1.0865000E-03    5.5858167E-03
 -1.0860000E-03    5.0559565E-03
 -1.0855000E-03    4.0230784E-03
 -1.0850000E-03    2.5401944E-03
 -1.0845000E-03    7.0488732E-04
 -1.0840000E-03   -1.3461619E-03
 -1.0835000E-03   -3.4465506E-03
 -1.0830000E-03   -5.4128524E-03
 -1.0825000E-03   -7.0597292E-03
 -1.0820000E-03   -8.2162572E-03
 -1.0815000E-03   -8.7420885E-03
 -1.0810000E-03   -8.5420012E-03
 -1.0805000E-03   -7.5774346E-03
 -1.0800000E-03   -5.8737891E-03
 -1.0795000E-03   -3.5225793E-03
 -1.0790000E-03   -6.7792303E-04
 -1.0784999E-03    2.4526722E-03
 -1.0779999E-03    5.6227646E-03
 -1.0775001E-03    8.5657230E-03
 -1.0770001E-03    1.1016380E-02
 -1.0765000E-03    1.2733862E-02
 -1.0760000E-03    1.3523688E-02
 -1.0755000E-03    1.3257165E-02
 -1.0750000E-03    1.1886258E-02
 -1.0745000E-03    9.4523830E-03
 -1.0740000E-03    6.0880659E-03
 -1.0735000E-03    2.0109143E-03
 -1.0730000E-03   -2.4899507E-03
 -1.0725000E-03   -7.0742387E-03
 -1.0720000E-03   -1.1376197E-02
 -1.0715000E-03   -1.5033755E-02
 -1.0710000E-03   -1.7718777E-02
 -1.0705000E-03   -1.9165915E-02
 -1.0700000E-03   -1.9197535E-02
 -1.0695000E-03   -1.7742448E-02
 -1.0690000E-03   -1.4846569E-02
 -1.0685000E-03   -1.0674295E-02
 -1.0680000E-03   -5.5000759E-03
 -1.0675000E-03    3.0949933E-04
 -1.0670000E-03    6.3219545E-03
 -1.0665000E-03    1.2071650E-02
 -1.0660000E-03    1.7096471E-02
 -1.0655000E-03    2.0975547E-02
 -1.0650000E-03    2.3364918E-02
 -1.0645000E-03    2.4028072E-02
 -1.0640000E-03    2.2858676E-02
 -1.0634999E-03    1.9893337E-02
 -1.0629999E-03    1.5313067E-02
 -1.0625001E-03    9.4329417E-03
 -1.0620001E-03    2.6805385E-03
 -1.0615001E-03   -4.4354317E-03
 -1.0610000E-03   -1.1363939E-02
 -1.0605000E-03   -1.7554896E-02
 -1.0600000E-03   -2.2503408E-02
 -1.0595000E-03   -2.5791405E-02
 -1.0590000E-03   -2.7123194E-02
 -1.0585000E-03   -2.6351849E-02
 -1.0580000E-03   -2.3494124E-02
 -1.0575000E-03   -1.8732455E-02
 -1.0570000E-03   -1.2403586E-02
 -1.0565000E-03   -4.9746013E-03
 -1.0560000E-03    2.9919816E-03
 -1.0555000E-03    1.0881340E-02
 -1.0550000E-03    1.8074339E-02
 -1.0545000E-03    2.3996575E-02
 -1.0540000E-03    2.8164504E-02
 -1.0535000E-03    3.0224912E-02
 -1.0530000E-03    2.9984469E-02
 -1.0525000E-03    2.7426893E-02
 -1.0520000E-03    2.2716219E-02
 -1.0515000E-03    1.6185824E-02
 -1.0510000E-03    8.3139651E-03
 -1.0505000E-03   -3.1231873E-04
 -1.0500000E-03   -9.0421010E-03
 -1.0495000E-03   -1.7210759E-02
 -1.0490000E-03   -2.4191489E-02
 -1.0485000E-03   -2.9444089E-02
 -1.0479999E-03   -3.2557145E-02
 -1.0474999E-03   -3.3280306E-02
 -1.0470001E-03   -3.1544097E-02
 -1.0465001E-03   -2.7465757E-02
 -1.0460000E-03   -2.1340620E-02
 -1.0455000E-03   -1.3619785E-02
 -1.0450000E-03   -4.8758225E-03
 -1.0445000E-03    4.2407825E-03
 -1.0440000E-03    1.3051038E-02
 -1.0435000E-03    2.0898886E-02
 -1.0430000E-03    2.7200734E-02
 -1.0425000E-03    3.1489264E-02
 -1.0420000E-03    3.3448286E-02
 -1.0415000E-03    3.2935984E-02
 -1.0410000E-03    2.9994953E-02
 -1.0405000E-03    2.4848353E-02
 -1.0400000E-03    1.7882561E-02
 -1.0395000E-03    9.6177775E-03
 -1.0390000E-03    6.6886615E-04
 -1.0385000E-03   -8.3005903E-03
 -1.0380000E-03   -1.6627550E-02
 -1.0375000E-03   -2.3698436E-02
 -1.0370000E-03   -2.8994145E-02
 -1.0365000E-03   -3.2127883E-02
 -1.0360000E-03   -3.2873143E-02
 -1.0355000E-03   -3.1179840E-02
 -1.0350000E-03   -2.7177565E-02
 -1.0345000E-03   -2.1165764E-02
 -1.0340000E-03   -1.3591626E-02
 -1.0335000E-03   -5.0173099E-03
 -1.0329999E-03    3.9211344E-03
 -1.0324999E-03    1.2560198E-02
 -1.0319999E-03    2.0257425E-02
 -1.0315001E-03    2.6438545E-02
 -1.0310001E-03    3.0639928E-02
 -1.0305000E-03    3.2543268E-02
 -1.0300000E-03    3.2000069E-02
 -1.0295000E-03    2.9044019E-02
 -1.0290000E-03    2.3890324E-02
 -1.0285000E-03    1.6921788E-02
 -1.0280000E-03    8.6624902E-03
 -1.0275000E-03   -2.5935849E-04
 -1.0270000E-03   -9.1568856E-03
 -1.0265000E-03   -1.7335318E-02
 -1.0260000E-03   -2.4144512E-02
 -1.0255000E-03   -2.9029449E-02
 -1.0250000E-03   -3.1575009E-02
 -1.0245000E-03   -3.1541515E-02
 -1.0240000E-03   -2.8888116E-02
 -1.0235000E-03   -2.3781823E-02
 -1.0230000E-03   -1.6590966E-02
 -1.0225000E-03   -7.8629106E-03
 -1.0220000E-03    1.7129801E-03
 -1.0215000E-03    1.1354934E-02
 -1.0210000E-03    2.0247761E-02
 -1.0205000E-03    2.7607128E-02
 -1.0200000E-03    3.2744411E-02
 -1.0195000E-03    3.5127133E-02
 -1.0190000E-03    3.4429997E-02
 -1.0185000E-03    3.0572044E-02
 -1.0180000E-03    2.3736211E-02
 -1.0174999E-03    1.4368821E-02
 -1.0169999E-03    3.1578909E-03
 -1.0165001E-03   -9.0091629E-03
 -1.0160001E-03   -2.1106226E-02
 -1.0155000E-03   -3.2043744E-02
 -1.0150000E-03   -4.0753294E-02
 -1.0145000E-03   -4.6275228E-02
 -1.0140000E-03   -4.7842380E-02
 -1.0135000E-03   -4.4952951E-02
 -1.0130000E-03   -3.7425954E-02
 -1.0125000E-03   -2.5433814E-02
 -1.0120000E-03   -9.5081599E-03
 -1.0115000E-03    9.4831027E-03
 -1.0110000E-03    3.0387107E-02
 -1.0105000E-03    5.1843092E-02
 -1.0100000E-03    7.2380245E-02
 -1.0095000E-03    9.0529434E-02
 -1.0090000E-03    0.1049404    
 -1.0085000E-03    0.1144950    
 -1.0080000E-03    0.1184072    
 -1.0075000E-03    0.1163012    
 -1.0070000E-03    0.1082592    
 -1.0065000E-03    9.4835132E-02
 -1.0060000E-03    7.7030472E-02
 -1.0055000E-03    5.6232613E-02
 -1.0050000E-03    3.4119684E-02
 -1.0045000E-03    1.2537832E-02
 -1.0040000E-03   -6.6400976E-03
 -1.0035000E-03   -2.1663519E-02
 -1.0030000E-03   -3.1048894E-02
 -1.0025000E-03   -3.3708312E-02
 -1.0019999E-03   -2.9050715E-02
 -1.0014999E-03   -1.7046504E-02
 -1.0010001E-03    1.7510548E-03
 -1.0005001E-03    2.6230825E-02
 -1.0000000E-03    5.4794721E-02
 -9.9950004E-04    8.5470214E-02
 -9.9900004E-04    0.1160565    
 -9.9850004E-04    0.1442935    
 -9.9800003E-04    0.1680403    
 -9.9750003E-04    0.1854496    
 -9.9700002E-04    0.1951223    
 -9.9650002E-04    0.1962307    
 -9.9600002E-04    0.1885991    
 -9.9550001E-04    0.1727335    
 -9.9500001E-04    0.1497979    
 -9.9450001E-04    0.1215374    
 -9.9400000E-04    9.0153314E-02
 -9.9350000E-04    5.8139332E-02
 -9.9299999E-04    2.8091682E-02
 -9.9249999E-04    2.5075390E-03
 -9.9199999E-04   -1.6412040E-02
 -9.9149998E-04   -2.6938895E-02
 -9.9099998E-04   -2.7959844E-02
 -9.9049998E-04   -1.9072352E-02
 -9.8999997E-04   -6.2568550E-04
 -9.8949997E-04    2.6296275E-02
 -9.8899996E-04    5.9949618E-02
 -9.8849996E-04    9.8056942E-02
 -9.8799996E-04    0.1379762    
 -9.8749995E-04    0.1768986    
 -9.8699995E-04    0.2120606    
 -9.8649994E-04    0.2409527    
 -9.8600006E-04    0.2615094    
 -9.8550005E-04    0.2722659    
 -9.8500005E-04    0.2724682    
 -9.8450005E-04    0.2621297    
 -9.8400004E-04    0.2420297    
 -9.8350004E-04    0.2136542    
 -9.8300003E-04    0.1790842    
 -9.8250003E-04    0.1408410    
 -9.8200003E-04    0.1016995    
 -9.8150002E-04    6.4485587E-02
 -9.8100002E-04    3.1872191E-02
 -9.8050002E-04    6.1892238E-03
 -9.8000001E-04   -1.0738181E-02
 -9.7950001E-04   -1.7712029E-02
 -9.7900000E-04   -1.4236171E-02
 -9.7850000E-04   -5.3897657E-04
 -9.7800000E-04    2.2456322E-02
 -9.7749999E-04    5.3210065E-02
 -9.7699999E-04    8.9686237E-02
 -9.7649998E-04    0.1295043    
 -9.7599998E-04    0.1701107    
 -9.7549998E-04    0.2089576    
 -9.7499997E-04    0.2436751    
 -9.7450003E-04    0.2722259    
 -9.7400002E-04    0.2930318    
 -9.7350002E-04    0.3050641    
 -9.7300002E-04    0.3078934    
 -9.7250001E-04    0.3016979    
 -9.7200001E-04    0.2872292    
 -9.7150001E-04    0.2657417    
 -9.7100000E-04    0.2388923    
 -9.7050000E-04    0.2086155    
 -9.6999999E-04    0.1769874    
 -9.6949999E-04    0.1460846    
 -9.6899999E-04    0.1178491    
 -9.6849998E-04    9.3967952E-02
 -9.6799998E-04    7.5773589E-02
 -9.6749997E-04    6.4171992E-02
 -9.6700003E-04    5.9600726E-02
 -9.6650003E-04    6.2019438E-02
 -9.6600002E-04    7.0931867E-02
 -9.6550002E-04    8.5437119E-02
 -9.6500001E-04    0.1043061    
 -9.6450001E-04    0.1260775    
 -9.6400001E-04    0.1491673    
 -9.6350000E-04    0.1719835    
 -9.6300000E-04    0.1930397    
 -9.6249999E-04    0.2110595    
 -9.6199999E-04    0.2250648    
 -9.6149999E-04    0.2344425    
 -9.6099998E-04    0.2389839    
 -9.6049998E-04    0.2388948    
 -9.5999998E-04    0.2347751    
 -9.5949997E-04    0.2275673    
 -9.5900003E-04    0.2184786    
 -9.5850002E-04    0.2088803    
 -9.5800002E-04    0.2001916    
 -9.5750001E-04    0.1937570    
 -9.5700001E-04    0.1907243    
 -9.5650001E-04    0.1919355    
 -9.5600000E-04    0.1978380    
 -9.5550000E-04    0.2084252    
 -9.5500000E-04    0.2232129    
 -9.5449999E-04    0.2412550    
 -9.5399999E-04    0.2612008    
 -9.5349998E-04    0.2813898    
 -9.5299998E-04    0.2999805    
 -9.5249998E-04    0.3151031    
 -9.5199997E-04    0.3250250    
 -9.5150003E-04    0.3283159    
 -9.5100002E-04    0.3239992    
 -9.5050002E-04    0.3116738    
 -9.5000002E-04    0.2915961    
 -9.4950001E-04    0.2647111    
 -9.4900001E-04    0.2326268    
 -9.4850000E-04    0.1975304    
 -9.4800000E-04    0.1620497    
 -9.4750000E-04    0.1290673    
 -9.4699999E-04    0.1015021    
 -9.4649999E-04    8.2071804E-02
 -9.4599999E-04    7.3058486E-02
 -9.4549998E-04    7.6094888E-02
 -9.4499998E-04    9.1991924E-02
 -9.4449997E-04    0.1206237    
 -9.4400003E-04    0.1608831    
 -9.4350002E-04    0.2107154    
 -9.4300002E-04    0.2672300    
 -9.4250002E-04    0.3268873    
 -9.4200001E-04    0.3857451    
 -9.4150001E-04    0.4397492    
 -9.4100001E-04    0.4850459    
 -9.4050000E-04    0.5182895    
 -9.4000000E-04    0.5369206    
 -9.3949999E-04    0.5393915    
 -9.3899999E-04    0.5253168    
 -9.3849999E-04    0.4955353    
 -9.3799998E-04    0.4520762    
 -9.3749998E-04    0.3980278    
 -9.3699998E-04    0.3373199    
 -9.3649997E-04    0.2744328    
 -9.3600003E-04    0.2140582    
 -9.3550002E-04    0.1607373    
 -9.3500002E-04    0.1185061    
 -9.3450001E-04    9.0578258E-02
 -9.3400001E-04    7.9090066E-02
 -9.3350001E-04    8.4931649E-02
 -9.3300000E-04    0.1076774    
 -9.3250000E-04    0.1456228    
 -9.3200000E-04    0.1959248    
 -9.3149999E-04    0.2548342    
 -9.3099999E-04    0.3180009    
 -9.3049998E-04    0.3808261    
 -9.2999998E-04    0.4388323    
 -9.2949998E-04    0.4880190    
 -9.2899997E-04    0.5251758    
 -9.2850003E-04    0.5481246    
 -9.2800002E-04    0.5558745    
 -9.2750002E-04    0.5486733    
 -9.2700002E-04    0.5279559    
 -9.2650001E-04    0.4961942    
 -9.2600001E-04    0.4566631    
 -9.2550000E-04    0.4131437    
 -9.2500000E-04    0.3695922    
 -9.2450000E-04    0.3298014    
 -9.2399999E-04    0.2970865    
 -9.2349999E-04    0.2740200    
 -9.2299999E-04    0.2622396    
 -9.2249998E-04    0.2623419    
 -9.2199998E-04    0.2738703    
 -9.2149997E-04    0.2953955    
 -9.2100003E-04    0.3246779    
 -9.2050002E-04    0.3588956    
 -9.2000002E-04    0.3949164    
 -9.1950002E-04    0.4295870    
 -9.1900001E-04    0.4600145    
 -9.1850001E-04    0.4838138    
 -9.1800001E-04    0.4993022    
 -9.1750000E-04    0.5056236    
 -9.1700000E-04    0.5027958    
 -9.1649999E-04    0.4916775    
 -9.1599999E-04    0.4738638    
 -9.1549999E-04    0.4515197    
 -9.1499998E-04    0.4271713    
 -9.1449998E-04    0.4034733    
 -9.1399997E-04    0.3829760    
 -9.1349997E-04    0.3679107    
 -9.1300003E-04    0.3600133    
 -9.1250002E-04    0.3603981    
 -9.1200002E-04    0.3694906    
 -9.1150001E-04    0.3870219    
 -9.1100001E-04    0.4120809    
 -9.1050001E-04    0.4432164    
 -9.1000000E-04    0.4785775    
 -9.0950000E-04    0.5160754    
 -9.0899999E-04    0.5535548    
 -9.0849999E-04    0.5889562    
 -9.0799999E-04    0.6204591    
 -9.0749998E-04    0.6465943    
 -9.0699998E-04    0.6663206    
 -9.0649998E-04    0.6790631    
 -9.0599997E-04    0.6847141    
 -9.0550003E-04    0.6836032    
 -9.0500002E-04    0.6764400    
 -9.0450002E-04    0.6642416    
 -9.0400001E-04    0.6482495    
 -9.0350001E-04    0.6298453    
 -9.0300001E-04    0.6104701    
 -9.0250000E-04    0.5915524    
 -9.0200000E-04    0.5744458    
 -9.0150000E-04    0.5603760    
 -9.0099999E-04    0.5503977    
 -9.0049999E-04    0.5453576    
 -8.9999998E-04    0.5458628    
 -8.9949998E-04    0.5522529    
 -8.9899998E-04    0.5645764    
 -8.9849997E-04    0.5825717    
 -8.9800003E-04    0.6056576    
 -8.9750002E-04    0.6329355    
 -8.9700002E-04    0.6632080    
 -8.9650002E-04    0.6950195    
 -8.9600001E-04    0.7267185    
 -8.9550001E-04    0.7565456    
 -8.9500000E-04    0.7827429    
 -8.9450000E-04    0.8036796    
 -8.9400000E-04    0.8179867    
 -8.9349999E-04    0.8246884    
 -8.9299999E-04    0.8233184    
 -8.9249999E-04    0.8140070    
 -8.9199998E-04    0.7975275    
 -8.9149998E-04    0.7752904    
 -8.9099997E-04    0.7492822    
 -8.9050003E-04    0.7219444    
 -8.9000002E-04    0.6960009    
 -8.8950002E-04    0.6742425    
 -8.8900002E-04    0.6592854    
 -8.8850001E-04    0.6533249    
 -8.8800001E-04    0.6579067    
 -8.8750001E-04    0.6737391    
 -8.8700000E-04    0.7005692    
 -8.8650000E-04    0.7371371    
 -8.8599999E-04    0.7812233    
 -8.8549999E-04    0.8297865    
 -8.8499999E-04    0.8791901    
 -8.8449998E-04    0.9254988    
 -8.8399998E-04    0.9648234    
 -8.8349998E-04    0.9936835    
 -8.8299997E-04     1.009354    
 -8.8250003E-04     1.010162    
 -8.8200002E-04    0.9957044    
 -8.8150002E-04    0.9669561    
 -8.8100001E-04    0.9262576    
 -8.8050001E-04    0.8771724    
 -8.8000001E-04    0.8242239    
 -8.7950000E-04    0.7725288    
 -8.7900000E-04    0.7273561    
 -8.7850000E-04    0.6936525    
 -8.7799999E-04    0.6755736    
 -8.7749999E-04    0.6760703    
 -8.7699998E-04    0.6965668    
 -8.7649998E-04    0.7367697    
 -8.7599998E-04    0.7946264    
 -8.7549997E-04    0.8664469    
 -8.7500003E-04    0.9471821    
 -8.7450002E-04     1.030837    
 -8.7400002E-04     1.110988    
 -8.7350002E-04     1.181354    
 -8.7300001E-04     1.236377    
 -8.7250001E-04     1.271751    
 -8.7200000E-04     1.284851    
 -8.7150000E-04     1.275018    
 -8.7100000E-04     1.243674    
 -8.7049999E-04     1.194243    
 -8.6999999E-04     1.131889    
 -8.6949999E-04     1.063083    
 -8.6899998E-04    0.9950449    
 -8.6849998E-04    0.9350982    
 -8.6799997E-04    0.8900083    
 -8.6750003E-04    0.8653550    
 -8.6700002E-04    0.8650047    
 -8.6650002E-04    0.8907306    
 -8.6600002E-04    0.9420199    
 -8.6550001E-04     1.016088    
 -8.6500001E-04     1.108099    
 -8.6450001E-04     1.211583    
 -8.6400000E-04     1.318999    
 -8.6350000E-04     1.422410    
 -8.6299999E-04     1.514190    
 -8.6249999E-04     1.587718    
 -8.6199999E-04     1.637976    
 -8.6149998E-04     1.662003    
 -8.6099998E-04     1.659168    
 -8.6049997E-04     1.631225    
 -8.5999997E-04     1.582150    
 -8.5950003E-04     1.517782    
 -8.5900002E-04     1.445290    
 -8.5850002E-04     1.372518    
 -8.5800001E-04     1.307286    
 -8.5750001E-04     1.256682    
 -8.5700001E-04     1.226447    
 -8.5650000E-04     1.220471    
 -8.5600000E-04     1.240484    
 -8.5549999E-04     1.285936    
 -8.5499999E-04     1.354095    
 -8.5449999E-04     1.440341    
 -8.5399998E-04     1.538624    
 -8.5349998E-04     1.642052    
 -8.5299998E-04     1.743528    
 -8.5249997E-04     1.836399    
 -8.5200003E-04     1.915034    
 -8.5150002E-04     1.975297    
 -8.5100002E-04     2.014855    
 -8.5050002E-04     2.033307    
 -8.5000001E-04     2.032128    
 -8.4950001E-04     2.014431    
 -8.4900000E-04     1.984587    
 -8.4850000E-04     1.947739    
 -8.4800000E-04     1.909265    
 -8.4749999E-04     1.874243    
 -8.4699999E-04     1.846982    
 -8.4649998E-04     1.830645    
 -8.4599998E-04     1.827016    
 -8.4549998E-04     1.836426    
 -8.4499997E-04     1.857823    
 -8.4450003E-04     1.888993    
 -8.4400002E-04     1.926891    
 -8.4350002E-04     1.968034    
 -8.4300002E-04     2.008924    
 -8.4250001E-04     2.046443    
 -8.4200001E-04     2.078182    
 -8.4150000E-04     2.102660    
 -8.4100000E-04     2.119431    
 -8.4050000E-04     2.129048    
 -8.3999999E-04     2.132916    
 -8.3949999E-04     2.133038    
 -8.3899999E-04     2.131706    
 -8.3849998E-04     2.131158    
 -8.3799998E-04     2.133267    
 -8.3749997E-04     2.139280    
 -8.3700003E-04     2.149651    
 -8.3650002E-04     2.163994    
 -8.3600002E-04     2.181148    
 -8.3550002E-04     2.199352    
 -8.3500001E-04     2.216516    
 -8.3450001E-04     2.230536    
 -8.3400001E-04     2.239630    
 -8.3350000E-04     2.242640    
 -8.3300000E-04     2.239259    
 -8.3249999E-04     2.230155    
 -8.3199999E-04     2.216972    
 -8.3149999E-04     2.202188    
 -8.3099998E-04     2.188860    
 -8.3049998E-04     2.180272    
 -8.2999998E-04     2.179514    
 -8.2949997E-04     2.189068    
 -8.2900003E-04     2.210417    
 -8.2850002E-04     2.243763    
 -8.2800002E-04     2.287864    
 -8.2750001E-04     2.340037    
 -8.2700001E-04     2.396333    
 -8.2650001E-04     2.451869    
 -8.2600000E-04     2.501301    
 -8.2550000E-04     2.539388    
 -8.2500000E-04     2.561584    
 -8.2449999E-04     2.564605    
 -8.2399999E-04     2.546898    
 -8.2349998E-04     2.508957    
 -8.2299998E-04     2.453444    
 -8.2249998E-04     2.385086    
 -8.2199997E-04     2.310351    
 -8.2150003E-04     2.236918    
 -8.2100002E-04     2.172989    
 -8.2050002E-04     2.126502    
 -8.2000002E-04     2.104332    
 -8.1950001E-04     2.111545    
 -8.1900001E-04     2.150799    
 -8.1850000E-04     2.221947    
 -8.1800000E-04     2.321906    
 -8.1750000E-04     2.444804    
 -8.1699999E-04     2.582412    
 -8.1649999E-04     2.724814    
 -8.1599999E-04     2.861290    
 -8.1549998E-04     2.981284    
 -8.1499998E-04     3.075416    
 -8.1449997E-04     3.136400    
 -8.1400003E-04     3.159797    
 -8.1350002E-04     3.144516    
 -8.1300002E-04     3.093006    
 -8.1250002E-04     3.011119    
 -8.1200001E-04     2.907639    
 -8.1150001E-04     2.793526    
 -8.1100001E-04     2.680929    
 -8.1050000E-04     2.582070    
 -8.1000000E-04     2.508107    
 -8.0949999E-04     2.468067    
 -8.0899999E-04     2.467984    
 -8.0849999E-04     2.510293    
 -8.0799998E-04     2.593578    
 -8.0749998E-04     2.712677    
 -8.0699997E-04     2.859144    
 -8.0649997E-04     3.022037    
 -8.0600003E-04     3.188944    
 -8.0550002E-04     3.347156    
 -8.0500002E-04     3.484872    
 -8.0450001E-04     3.592320    
 -8.0400001E-04     3.662679    
 -8.0350001E-04     3.692716    
 -8.0300000E-04     3.683072    
 -8.0250000E-04     3.638175    
 -8.0200000E-04     3.565773    
 -8.0149999E-04     3.476152    
 -8.0099999E-04     3.381102    
 -8.0049998E-04     3.292747    
 -7.9999998E-04     3.222347    
 -7.9949998E-04     3.179189    
 -7.9899997E-04     3.169692    
 -7.9850003E-04     3.196803    
 -7.9800002E-04     3.259746    
 -7.9750002E-04     3.354149    
 -7.9700002E-04     3.472537    
 -7.9650001E-04     3.605134    
 -7.9600001E-04     3.740894    
 -7.9550000E-04     3.868656    
 -7.9500000E-04     3.978296    
 -7.9450000E-04     4.061769    
 -7.9399999E-04     4.113927    
 -7.9349999E-04     4.133029    
 -7.9299998E-04     4.120899    
 -7.9249998E-04     4.082704    
 -7.9199998E-04     4.026393    
 -7.9149997E-04     3.961846    
 -7.9100003E-04     3.899822    
 -7.9050002E-04     3.850825    
 -7.9000002E-04     3.823997    
 -7.8950002E-04     3.826161    
 -7.8900001E-04     3.861113    
 -7.8850001E-04     3.929229    
 -7.8800000E-04     4.027437    
 -7.8750000E-04     4.149551    
 -7.8700000E-04     4.286931    
 -7.8649999E-04     4.429394    
 -7.8599999E-04     4.566293    
 -7.8549999E-04     4.687627    
 -7.8499998E-04     4.785092    
 -7.8449998E-04     4.852932    
 -7.8399997E-04     4.888527    
 -7.8350003E-04     4.892641    
 -7.8300002E-04     4.869305    
 -7.8250002E-04     4.825359    
 -7.8200002E-04     4.769691    
 -7.8150001E-04     4.712266    
 -7.8100001E-04     4.663048    
 -7.8050001E-04     4.630918    
 -7.8000000E-04     4.622735    
 -7.7950000E-04     4.642609    
 -7.7899999E-04     4.691486    
 -7.7849999E-04     4.767088    
 -7.7799999E-04     4.864201    
 -7.7749998E-04     4.975295    
 -7.7699998E-04     5.091404    
 -7.7649998E-04     5.203164    
 -7.7599997E-04     5.301895    
 -7.7550003E-04     5.380617    
 -7.7500002E-04     5.434870    
 -7.7450002E-04     5.463262    
 -7.7400001E-04     5.467663    
 -7.7350001E-04     5.453037    
 -7.7300001E-04     5.426910    
 -7.7250000E-04     5.398539    
 -7.7200000E-04     5.377865    
 -7.7150000E-04     5.374368    
 -7.7099999E-04     5.395942    
 -7.7049999E-04     5.447922    
 -7.6999998E-04     5.532375    
 -7.6949998E-04     5.647731    
 -7.6899998E-04     5.788815    
 -7.6849997E-04     5.947280    
 -7.6800003E-04     6.112399    
 -7.6750002E-04     6.272147    
 -7.6700002E-04     6.414462    
 -7.6650002E-04     6.528543    
 -7.6600001E-04     6.606066    
 -7.6550001E-04     6.642158    
 -7.6500000E-04     6.636045    
 -7.6450000E-04     6.591284    
 -7.6400000E-04     6.515538    
 -7.6349999E-04     6.419919    
 -7.6299999E-04     6.317956    
 -7.6249999E-04     6.224277    
 -7.6199998E-04     6.153147    
 -7.6149998E-04     6.117009    
 -7.6099997E-04     6.125180    
 -7.6050003E-04     6.182834    
 -7.6000002E-04     6.290400    
 -7.5950002E-04     6.443425    
 -7.5900002E-04     6.632937    
 -7.5850001E-04     6.846281    
 -7.5800001E-04     7.068336    
 -7.5750001E-04     7.283011    
 -7.5700000E-04     7.474858    
 -7.5650000E-04     7.630641    
 -7.5599999E-04     7.740703    
 -7.5549999E-04     7.799977    
 -7.5499999E-04     7.808552    
 -7.5449998E-04     7.771703    
 -7.5399998E-04     7.699403    
 -7.5349997E-04     7.605344    
 -7.5299997E-04     7.505562    
 -7.5250003E-04     7.416821    
 -7.5200002E-04     7.354895    
 -7.5150002E-04     7.332941    
 -7.5100001E-04     7.360125    
 -7.5050001E-04     7.440648    
 -7.5000001E-04     7.573268    
 -7.4950000E-04     7.751387    
 -7.4900000E-04     7.963674    
 -7.4850000E-04     8.195195    
 -7.4799999E-04     8.428911    
 -7.4749999E-04     8.647408    
 -7.4699998E-04     8.834676    
 -7.4649998E-04     8.977758    
 -7.4599998E-04     9.068102    