 -1.2000001E-03    1.0000000E-24
 -1.1995001E-03    1.0000000E-24
 -1.1990000E-03    1.0000000E-24
 -1.1985000E-03    1.0000000E-24
 -1.1980000E-03    1.0000000E-24
 -1.1975000E-03    1.0000000E-24
 -1.1970000E-03    1.0000000E-24
 -1.1965000E-03    1.0000000E-24
 -1.1960000E-03    1.0000000E-24
 -1.1955000E-03    1.0000001E-24
 -1.1950000E-03    1.0000002E-24
 -1.1945000E-03    1.0000002E-24
 -1.1940000E-03    1.0000002E-24
 -1.1935000E-03    1.0000002E-24
 -1.1930000E-03    1.0000002E-24
 -1.1925000E-03    1.0000002E-24
 -1.1920000E-03    1.0000002E-24
 -1.1915000E-03    1.0000002E-24
 -1.1910000E-03    1.0000002E-24
 -1.1905000E-03    1.0000002E-24
 -1.1900000E-03    1.0000002E-24
 -1.1895000E-03    1.0000002E-24
 -1.1890000E-03    1.0000002E-24
 -1.1885000E-03    1.0000002E-24
 -1.1880000E-03    1.0000002E-24
 -1.1875000E-03    1.0000002E-24
 -1.1870000E-03    1.0000002E-24
 -1.1865000E-03    1.0000002E-24
 -1.1860000E-03    1.0000002E-24
 -1.1854999E-03    1.0000002E-24
 -1.1849999E-03    1.0000001E-24
 -1.1845001E-03    1.0000000E-24
 -1.1840001E-03    1.0000000E-24
 -1.1835000E-03    1.0000000E-24
 -1.1830000E-03    1.0000000E-24
 -1.1825000E-03    1.0000000E-24
 -1.1820000E-03    1.0000000E-24
 -1.1815000E-03    1.0000000E-24
 -1.1810000E-03    1.0000000E-24
 -1.1805000E-03    1.0000000E-24
 -1.1800000E-03    1.0000000E-24
 -1.1795000E-03    1.0000001E-24
 -1.1790000E-03    1.0000002E-24
 -1.1785000E-03    1.0000003E-24
 -1.1780000E-03    1.0000003E-24
 -1.1775000E-03    1.0000003E-24
 -1.1770000E-03    1.0000003E-24
 -1.1765000E-03    1.0000003E-24
 -1.1760000E-03    1.0000003E-24
 -1.1755000E-03    1.0000003E-24
 -1.1750000E-03    1.0000002E-24
 -1.1745000E-03    1.0000001E-24
 -1.1740000E-03    1.0000000E-24
 -1.1735000E-03    9.9999992E-25
 -1.1730000E-03    9.9999992E-25
 -1.1725000E-03    9.9999992E-25
 -1.1720000E-03    9.9999992E-25
 -1.1715000E-03    9.9999992E-25
 -1.1710000E-03    9.9999992E-25
 -1.1704999E-03    9.9999992E-25
 -1.1699999E-03    9.9999992E-25
 -1.1695001E-03    9.9999992E-25
 -1.1690001E-03    1.0000000E-24
 -1.1685000E-03    1.0000001E-24
 -1.1680000E-03    1.0000002E-24
 -1.1675000E-03    1.0000003E-24
 -1.1670000E-03    1.0000004E-24
 -1.1665000E-03    1.0000004E-24
 -1.1660000E-03    1.0000004E-24
 -1.1655000E-03    1.0000004E-24
 -1.1650000E-03    1.0000004E-24
 -1.1645000E-03    1.0000004E-24
 -1.1640000E-03    1.0000004E-24
 -1.1635000E-03    1.0000004E-24
 -1.1630000E-03    1.0000003E-24
 -1.1625000E-03    1.0000002E-24
 -1.1620000E-03    1.0000001E-24
 -1.1615000E-03    1.0000001E-24
 -1.1610000E-03    1.0000001E-24
 -1.1605000E-03    1.0000001E-24
 -1.1600000E-03    1.0000001E-24
 -1.1595000E-03    1.0000001E-24
 -1.1590000E-03    1.0000001E-24
 -1.1585000E-03    1.0000002E-24
 -1.1580000E-03    1.0000003E-24
 -1.1575000E-03    1.0000004E-24
 -1.1570000E-03    1.0000005E-24
 -1.1565000E-03    1.0000006E-24
 -1.1560000E-03    1.0000006E-24
 -1.1555000E-03    1.0000005E-24
 -1.1549999E-03    1.0000001E-24
 -1.1544999E-03    9.9999943E-25
 -1.1540001E-03    9.9999834E-25
 -1.1535001E-03    9.9999677E-25
 -1.1530000E-03    9.9999460E-25
 -1.1525000E-03    9.9999164E-25
 -1.1520000E-03    9.9998789E-25
 -1.1515000E-03    9.9998355E-25
 -1.1510000E-03    9.9997882E-25
 -1.1505000E-03    9.9997458E-25
 -1.1500000E-03    9.9997201E-25
 -1.1495000E-03    9.9997320E-25
 -1.1490000E-03    9.9998119E-25
 -1.1485000E-03    1.0000002E-24
 -1.1480000E-03    1.0000356E-24
 -1.1475000E-03    1.0000941E-24
 -1.1470000E-03    1.0001829E-24
 -1.1465000E-03    1.0003096E-24
 -1.1460000E-03    1.0004799E-24
 -1.1455000E-03    1.0006957E-24
 -1.1450000E-03    1.0009518E-24
 -1.1445000E-03    1.0012313E-24
 -1.1440000E-03    1.0015003E-24
 -1.1435000E-03    1.0017012E-24
 -1.1430000E-03    1.0017458E-24
 -1.1425000E-03    1.0015095E-24
 -1.1420000E-03    1.0008272E-24
 -1.1415000E-03    9.9949397E-25
 -1.1410000E-03    9.9727214E-25
 -1.1405000E-03    9.9391021E-25
 -1.1399999E-03    9.8917566E-25
 -1.1394999E-03    9.8290678E-25
 -1.1390001E-03    9.7508671E-25
 -1.1385001E-03    9.6594134E-25
 -1.1380001E-03    9.5606076E-25
 -1.1375000E-03    9.4653921E-25
 -1.1370000E-03    9.3912185E-25
 -1.1365000E-03    9.3634082E-25
 -1.1360000E-03    9.4161080E-25
 -1.1355000E-03    9.5924717E-25
 -1.1350000E-03    9.9435631E-25
 -1.1345000E-03    1.0525407E-24
 -1.1340000E-03    1.1393557E-24
 -1.1335000E-03    1.2594573E-24
 -1.1330000E-03    1.4153892E-24
 -1.1325000E-03    1.6059895E-24
 -1.1320000E-03    1.8244308E-24
 -1.1315000E-03    2.0559806E-24
 -1.1310000E-03    2.2756474E-24
 -1.1305000E-03    2.4459843E-24
 -1.1300000E-03    2.5154483E-24
 -1.1295000E-03    2.4178348E-24
 -1.1290000E-03    2.0734347E-24
 -1.1285000E-03    1.3926487E-24
 -1.1280000E-03    2.8283424E-25
 -1.1275000E-03   -1.3408950E-24
 -1.1270000E-03   -3.5403663E-24
 -1.1265000E-03   -6.3343314E-24
 -1.1260000E-03   -9.6740474E-24
 -1.1255000E-03   -1.3415498E-23
 -1.1250000E-03   -1.7290255E-23
 -1.1244999E-03   -2.0878084E-23
 -1.1239999E-03   -2.3585669E-23
 -1.1235001E-03   -2.4637070E-23
 -1.1230001E-03   -2.3082622E-23
 -1.1225000E-03   -1.7833772E-23
 -1.1220000E-03   -7.7313922E-24
 -1.1215000E-03    8.3455473E-24
 -1.1210000E-03    3.1326165E-23
 -1.1205000E-03    6.1747261E-23
 -1.1200000E-03    9.9510032E-23
 -1.1195000E-03    1.4360453E-22
 -1.1190000E-03    1.9182078E-22
 -1.1185000E-03    2.4047547E-22
 -1.1180000E-03    2.8419329E-22
 -1.1175000E-03    3.1579193E-22
 -1.1170000E-03    3.2632813E-22
 -1.1165000E-03    3.0536664E-22
 -1.1160000E-03    2.4153331E-22
 -1.1155000E-03    1.2340525E-22
 -1.1150000E-03   -5.9226339E-23
 -1.1145000E-03   -3.1371443E-22
 -1.1140000E-03   -6.4256929E-22
 -1.1135000E-03   -1.0412138E-21
 -1.1130000E-03   -1.4956302E-21
 -1.1125000E-03   -1.9801181E-21
 -1.1120000E-03   -2.4554558E-21
 -1.1115000E-03   -2.8678200E-21
 -1.1110000E-03   -3.1488746E-21
 -1.1105000E-03   -3.2174547E-21
 -1.1100000E-03   -2.9832640E-21
 -1.1094999E-03   -2.3529326E-21
 -1.1089999E-03   -1.2386505E-21
 -1.1084999E-03    4.3059921E-22
 -1.1080001E-03    2.6954644E-21
 -1.1075001E-03    5.5508965E-21
 -1.1070000E-03    8.9300593E-21
 -1.1065000E-03    1.2688885E-20
 -1.1060000E-03    1.6593112E-20
 -1.1055000E-03    2.0310003E-20
 -1.1050000E-03    2.3407211E-20
 -1.1045000E-03    2.5361341E-20
 -1.1040000E-03    2.5578617E-20
 -1.1035000E-03    2.3429619E-20
 -1.1030000E-03    1.8299258E-20
 -1.1025000E-03    9.6519941E-21
 -1.1020000E-03   -2.8892239E-21
 -1.1015000E-03   -1.9453739E-20
 -1.1010000E-03   -3.9829183E-20
 -1.1005000E-03   -6.3370475E-20
 -1.1000000E-03   -8.8921683E-20
 -1.0995000E-03   -1.1476243E-19
 -1.0990000E-03   -1.3859176E-19
 -1.0985000E-03   -1.5756253E-19
 -1.0980000E-03   -1.6837856E-19
 -1.0975000E-03   -1.6746429E-19
 -1.0970000E-03   -1.5121258E-19
 -1.0965000E-03   -1.1631049E-19
 -1.0960000E-03   -6.0135210E-20
 -1.0955000E-03    1.8796380E-20
 -1.0950000E-03    1.2035135E-19
 -1.0945000E-03    2.4231419E-19
 -1.0939999E-03    3.7997632E-19
 -1.0934999E-03    5.2583623E-19
 -1.0930001E-03    6.6946860E-19
 -1.0925001E-03    7.9762240E-19
 -1.0920000E-03    8.9460266E-19
 -1.0915000E-03    9.4297969E-19
 -1.0910000E-03    9.2465113E-19
 -1.0905000E-03    8.2225661E-19
 -1.0900000E-03    6.2091346E-19
 -1.0895000E-03    3.1020322E-19
 -1.0890000E-03   -1.1370153E-19
 -1.0885000E-03   -6.4592208E-19
 -1.0880000E-03   -1.2709614E-18
 -1.0875000E-03   -1.9612159E-18
 -1.0870000E-03   -2.6761522E-18
 -1.0865000E-03   -3.3623918E-18
 -1.0860000E-03   -3.9549279E-18
 -1.0855000E-03   -4.3796538E-18
 -1.0850000E-03   -4.5573168E-18
 -1.0845000E-03   -4.4089091E-18
 -1.0840000E-03   -3.8623917E-18
 -1.0835000E-03   -2.8605053E-18
 -1.0830000E-03   -1.3692631E-18
 -1.0825000E-03    6.1342205E-19
 -1.0820000E-03    3.0496795E-18
 -1.0815000E-03    5.8550028E-18
 -1.0810000E-03    8.8938468E-18
 -1.0805000E-03    1.1978402E-17
 -1.0800000E-03    1.4871405E-17
 -1.0795000E-03    1.7293690E-17
 -1.0790000E-03    1.8936973E-17
 -1.0784999E-03    1.9482027E-17
 -1.0779999E-03    1.8621986E-17
 -1.0775001E-03    1.6090066E-17
 -1.0770001E-03    1.1690448E-17
 -1.0765000E-03    5.3305219E-18
 -1.0760000E-03   -2.9478140E-18
 -1.0755000E-03   -1.2940539E-17
 -1.0750000E-03   -2.4260638E-17
 -1.0745000E-03   -3.6327159E-17
 -1.0740000E-03   -4.8367289E-17
 -1.0735000E-03   -5.9434211E-17
 -1.0730000E-03   -6.8442770E-17
 -1.0725000E-03   -7.4224074E-17
 -1.0720000E-03   -7.5598888E-17
 -1.0715000E-03   -7.1468081E-17
 -1.0710000E-03   -6.0916777E-17
 -1.0705000E-03   -4.3326946E-17
 -1.0700000E-03   -1.8491404E-17
 -1.0695000E-03    1.3279458E-17
 -1.0690000E-03    5.1068202E-17
 -1.0685000E-03    9.3288880E-17
 -1.0680000E-03    1.3766457E-16
 -1.0675000E-03    1.8125412E-16
 -1.0670000E-03    2.2053660E-16
 -1.0665000E-03    2.5155952E-16
 -1.0660000E-03    2.7015285E-16
 -1.0655000E-03    2.7220624E-16
 -1.0650000E-03    2.5400168E-16
 -1.0645000E-03    2.1258695E-16
 -1.0640000E-03    1.4616983E-16
 -1.0634999E-03    5.4506100E-17
 -1.0629999E-03   -6.0750163E-17
 -1.0625001E-03   -1.9577004E-16
 -1.0620001E-03   -3.4438462E-16
 -1.0615001E-03   -4.9806803E-16
 -1.0610000E-03   -6.4610239E-16
 -1.0605000E-03   -7.7595005E-16
 -1.0600000E-03   -8.7384853E-16
 -1.0595000E-03   -9.2562871E-16
 -1.0590000E-03   -9.1773786E-16
 -1.0585000E-03   -8.3843106E-16
 -1.0580000E-03   -6.7907065E-16
 -1.0575000E-03   -4.3545273E-16
 -1.0570000E-03   -1.0906007E-16
 -1.0565000E-03    2.9187482E-16
 -1.0560000E-03    7.5162252E-16
 -1.0555000E-03    1.2466528E-15
 -1.0550000E-03    1.7458908E-15
 -1.0545000E-03    2.2116310E-15
 -1.0540000E-03    2.6011717E-15
 -1.0535000E-03    2.8691871E-15
 -1.0530000E-03    2.9707961E-15
 -1.0525000E-03    2.8652224E-15
 -1.0520000E-03    2.5198652E-15
 -1.0515000E-03    1.9145337E-15
 -1.0510000E-03    1.0455279E-15
 -1.0505000E-03   -7.0799567E-17
 -1.0500000E-03   -1.3954013E-15
 -1.0495000E-03   -2.8652156E-15
 -1.0490000E-03   -4.3935425E-15
 -1.0485000E-03   -5.8724269E-15
 -1.0479999E-03   -7.1772422E-15
 -1.0474999E-03   -8.1735300E-15
 -1.0470001E-03   -8.7259716E-15
 -1.0465001E-03   -8.7091470E-15
 -1.0460000E-03   -8.0195419E-15
 -1.0455000E-03   -6.5880241E-15
 -1.0450000E-03   -4.3918379E-15
 -1.0445000E-03   -1.4650191E-15
 -1.0440000E-03    2.0939495E-15
 -1.0435000E-03    6.1184027E-15
 -1.0430000E-03    1.0374729E-14
 -1.0425000E-03    1.4569380E-14
 -1.0420000E-03    1.8362141E-14
 -1.0415000E-03    2.1385664E-14
 -1.0410000E-03    2.3270751E-14
 -1.0405000E-03    2.3676255E-14
 -1.0400000E-03    2.2321886E-14
 -1.0395000E-03    1.9021651E-14
 -1.0390000E-03    1.3715132E-14
 -1.0385000E-03    6.4936044E-15
 -1.0380000E-03   -2.3821853E-15
 -1.0375000E-03   -1.2475522E-14
 -1.0370000E-03   -2.3180996E-14
 -1.0365000E-03   -3.3747253E-14
 -1.0360000E-03   -4.3315835E-14
 -1.0355000E-03   -5.0975459E-14
 -1.0350000E-03   -5.5829531E-14
 -1.0345000E-03   -5.7073188E-14
 -1.0340000E-03   -5.4074749E-14
 -1.0335000E-03   -4.6455058E-14
 -1.0329999E-03   -3.4157512E-14
 -1.0324999E-03   -1.7501073E-14
 -1.0319999E-03    2.7910701E-15
 -1.0315001E-03    2.5593539E-14
 -1.0310001E-03    4.9416082E-14
 -1.0305000E-03    7.2478292E-14
 -1.0300000E-03    9.2820743E-14
 -1.0295000E-03    1.0844804E-13
 -1.0290000E-03    1.1749583E-13
 -1.0285000E-03    1.1841007E-13
 -1.0280000E-03    1.1012417E-13
 -1.0275000E-03    9.2217460E-14
 -1.0270000E-03    6.5037690E-14
 -1.0265000E-03    2.9770938E-14
 -1.0260000E-03   -1.1555200E-14
 -1.0255000E-03   -5.6145203E-14
 -1.0250000E-03   -1.0059020E-13
 -1.0245000E-03   -1.4110073E-13
 -1.0240000E-03   -1.7380672E-13
 -1.0235000E-03   -1.9510591E-13
 -1.0230000E-03   -2.0203408E-13
 -1.0225000E-03   -1.9262424E-13
 -1.0220000E-03   -1.6621818E-13
 -1.0215000E-03   -1.2369276E-13
 -1.0210000E-03   -6.7565853E-14
 -1.0205000E-03   -1.9535494E-15
 -1.0200000E-03    6.7639254E-14
 -1.0195000E-03    1.3469901E-13
 -1.0190000E-03    1.9224157E-13
 -1.0185000E-03    2.3347733E-13
 -1.0180000E-03    2.5255487E-13
 -1.0174999E-03    2.4531784E-13
 -1.0169999E-03    2.0999892E-13
 -1.0165001E-03    1.4776689E-13
 -1.0160001E-03    6.3045970E-14
 -1.0155000E-03   -3.6465371E-14
 -1.0150000E-03   -1.4012858E-13
 -1.0145000E-03   -2.3507761E-13
 -1.0140000E-03   -3.0729998E-13
 -1.0135000E-03   -3.4303609E-13
 -1.0130000E-03   -3.3040432E-13
 -1.0125000E-03   -2.6111931E-13
 -1.0120000E-03   -1.3213696E-13
 -1.0115000E-03    5.2962571E-14
 -1.0110000E-03    2.8305055E-13
 -1.0105000E-03    5.3916821E-13
 -1.0100000E-03    7.9504047E-13
 -1.0095000E-03    1.0184830E-12
 -1.0090000E-03    1.1737264E-12
 -1.0085000E-03    1.2245916E-12
 -1.0080000E-03    1.1383519E-12
 -1.0075000E-03    8.9001262E-13
 -1.0070000E-03    4.6665146E-13
 -1.0065000E-03   -1.2861636E-13
 -1.0060000E-03   -8.7352526E-13
 -1.0055000E-03   -1.7248804E-12
 -1.0050000E-03   -2.6185525E-12
 -1.0045000E-03   -3.4715915E-12
 -1.0040000E-03   -4.1866597E-12
 -1.0035000E-03   -4.6587916E-12
 -1.0030000E-03   -4.7842624E-12
 -1.0025000E-03   -4.4711010E-12
 -1.0019999E-03   -3.6505321E-12
 -1.0014999E-03   -2.2884145E-12
 -1.0010001E-03   -3.9557268E-13
 -1.0005001E-03    1.9641834E-12
 -1.0000000E-03    4.6695495E-12
 -9.9950004E-04    7.5418092E-12
 -9.9900004E-04    1.0350354E-11
 -9.9850004E-04    1.2824117E-11
 -9.9800003E-04    1.4668934E-11
 -9.9750003E-04    1.5590286E-11
 -9.9700002E-04    1.5320280E-11
 -9.9650002E-04    1.3647131E-11
 -9.9600002E-04    1.0444878E-11
 -9.9550001E-04    5.7006413E-12
 -9.9500001E-04   -4.6349990E-13
 -9.9450001E-04   -7.7769336E-12
 -9.9400000E-04   -1.5817923E-11
 -9.9350000E-04   -2.4024111E-11
 -9.9299999E-04   -3.1717413E-11
 -9.9249999E-04   -3.8143495E-11
 -9.9199999E-04   -4.2524758E-11
 -9.9149998E-04   -4.4124367E-11
 -9.9099998E-04   -4.2317441E-11
 -9.9049998E-04   -3.6664290E-11
 -9.8999997E-04   -2.6979556E-11
 -9.8949997E-04   -1.3390516E-11
 -9.8899996E-04    3.6223403E-12
 -9.8849996E-04    2.3208819E-11
 -9.8799996E-04    4.4161869E-11
 -9.8749995E-04    6.4963257E-11
 -9.8699995E-04    8.3863229E-11
 -9.8649994E-04    9.8992467E-11
 -9.8600006E-04    1.0850167E-10
 -9.8550005E-04    1.1072086E-10
 -9.8500005E-04    1.0432772E-10
 -9.8450005E-04    8.8511871E-11
 -9.8400004E-04    6.3120294E-11
 -9.8350004E-04    2.8768828E-11
 -9.8300003E-04   -1.3094862E-11
 -9.8250003E-04   -6.0189222E-11
 -9.8200003E-04   -1.0946663E-10
 -9.8150002E-04   -1.5725535E-10
 -9.8100002E-04   -1.9947409E-10
 -9.8050002E-04   -2.3191135E-10
 -9.8000001E-04   -2.5055494E-10
 -9.7950001E-04   -2.5195082E-10
 -9.7900000E-04   -2.3356544E-10
 -9.7850000E-04   -1.9412108E-10
 -9.7800000E-04   -1.3387290E-10
 -9.7749999E-04   -5.4796334E-11
 -9.7699999E-04    3.9342633E-11
 -9.7649998E-04    1.4305582E-10
 -9.7599998E-04    2.4935229E-10
 -9.7549998E-04    3.5011039E-10
 -9.7499997E-04    4.3659126E-10
 -9.7450003E-04    5.0006915E-10
 -9.7400002E-04    5.3254157E-10
 -9.7350002E-04    5.2747023E-10
 -9.7300002E-04    4.8049537E-10
 -9.7250001E-04    3.9006159E-10
 -9.7200001E-04    2.5789221E-10
 -9.7150001E-04    8.9254451E-11
 -9.7100000E-04   -1.0703130E-10
 -9.7050000E-04   -3.1887046E-10
 -9.6999999E-04   -5.3147259E-10
 -9.6949999E-04   -7.2821749E-10
 -9.6899999E-04   -8.9177199E-10
 -9.6849998E-04   -1.0053952E-09
 -9.6799998E-04   -1.0543478E-09
 -9.6749997E-04   -1.0273025E-09
 -9.6700003E-04   -9.1763913E-10
 -9.6650003E-04   -7.2450901E-10
 -9.6600002E-04   -4.5355261E-10
 -9.6550002E-04   -1.1717621E-10
 -9.6500001E-04    2.6568497E-10
 -9.6450001E-04    6.7035377E-10
 -9.6400001E-04    1.0677437E-09
 -9.6350000E-04    1.4261893E-09
 -9.6300000E-04    1.7136780E-09
 -9.6249999E-04    1.9003463E-09
 -9.6199999E-04    1.9610669E-09
 -9.6149999E-04    1.8779271E-09
 -9.6099998E-04    1.6423887E-09
 -9.6049998E-04    1.2569215E-09
 -9.5999998E-04    7.3592832E-10
 -9.5949997E-04    1.0581391E-10
 -9.5900003E-04   -5.9589145E-10
 -9.5850002E-04   -1.3223760E-09
 -9.5800002E-04   -2.0203064E-09
 -9.5750001E-04   -2.6333695E-09
 -9.5700001E-04   -3.1063894E-09
 -9.5650001E-04   -3.3897434E-09
 -9.5600000E-04   -3.4437564E-09
 -9.5550000E-04   -3.2427190E-09
 -9.5500000E-04   -2.7781755E-09
 -9.5449999E-04   -2.0611564E-09
 -9.5399999E-04   -1.1230812E-09
 -9.5349998E-04   -1.5144330E-11
 -9.5299998E-04    1.1939030E-09
 -9.5249998E-04    2.4215352E-09
 -9.5199997E-04    3.5766368E-09
 -9.5150003E-04    4.5657971E-09
 -9.5100002E-04    5.3003113E-09
 -9.5050002E-04    5.7033946E-09
 -9.5000002E-04    5.7170602E-09
 -9.4950001E-04    5.3080917E-09
 -9.4900001E-04    4.4725712E-09
 -9.4850000E-04    3.2384919E-09
 -9.4800000E-04    1.6661073E-09
 -9.4750000E-04   -1.5418744E-10
 -9.4699999E-04   -2.1064550E-09
 -9.4649999E-04   -4.0561265E-09
 -9.4599999E-04   -5.8588441E-09
 -9.4549998E-04   -7.3706916E-09
 -9.4499998E-04   -8.4591063E-09
 -9.4449997E-04   -9.0136778E-09
 -9.4400003E-04   -8.9559835E-09
 -9.4350002E-04   -8.2476328E-09
 -9.4300002E-04   -6.8957884E-09
 -9.4250002E-04   -4.9555648E-09
 -9.4200001E-04   -2.5289386E-09
 -9.4150001E-04    2.3996849E-10
 -9.4100001E-04    3.1730769E-09
 -9.4050000E-04    6.0695813E-09
 -9.4000000E-04    8.7195309E-09
 -9.3949999E-04    1.0918848E-08
 -9.3899999E-04    1.2484704E-08
 -9.3849999E-04    1.3270093E-08
 -9.3799998E-04    1.3176448E-08
 -9.3749998E-04    1.2163252E-08
 -9.3699998E-04    1.0253741E-08
 -9.3649997E-04    7.5361379E-09
 -9.3600003E-04    4.1600883E-09
 -9.3550002E-04    3.2840575E-10
 -9.3500002E-04   -3.7154333E-09
 -9.3450001E-04   -7.7032514E-09
 -9.3400001E-04   -1.1360491E-08
 -9.3350001E-04   -1.4425583E-08
 -9.3300000E-04   -1.6668922E-08
 -9.3250000E-04   -1.7910018E-08
 -9.3200000E-04   -1.8031470E-08
 -9.3149999E-04   -1.6988643E-08
 -9.3099999E-04   -1.4814272E-08
 -9.3049998E-04   -1.1617522E-08
 -9.2999998E-04   -7.5775626E-09
 -9.2949998E-04   -2.9320710E-09
 -9.2899997E-04    2.0384818E-09
 -9.2850003E-04    7.0295809E-09
 -9.2800002E-04    1.1733027E-08
 -9.2750002E-04    1.5857363E-08
 -9.2700002E-04    1.9146830E-08
 -9.2650001E-04    2.1397446E-08
 -9.2600001E-04    2.2469083E-08
 -9.2550000E-04    2.2292753E-08
 -9.2500000E-04    2.0872736E-08
 -9.2450000E-04    1.8283657E-08
 -9.2399999E-04    1.4662998E-08
 -9.2349999E-04    1.0199964E-08
 -9.2299999E-04    5.1218429E-09
 -9.2249998E-04   -3.2080827E-10
 -9.2199998E-04   -5.8688303E-09
 -9.2149997E-04   -1.1267762E-08
 -9.2100003E-04   -1.6278825E-08
 -9.2050002E-04   -2.0686993E-08
 -9.2000002E-04   -2.4305942E-08
 -9.1950002E-04   -2.6980135E-08
 -9.1900001E-04   -2.8584667E-08
 -9.1850001E-04   -2.9023784E-08
 -9.1800001E-04   -2.8229220E-08
 -9.1750000E-04   -2.6159437E-08
 -9.1700000E-04   -2.2800780E-08
 -9.1649999E-04   -1.8171175E-08
 -9.1599999E-04   -1.2326570E-08
 -9.1549999E-04   -5.3697855E-09
 -9.1499998E-04    2.5392026E-09
 -9.1449998E-04    1.1173007E-08
 -9.1399997E-04    2.0228541E-08
 -9.1349997E-04    2.9322859E-08
 -9.1300003E-04    3.7995331E-08
 -9.1250002E-04    4.5718053E-08
 -9.1200002E-04    5.1915851E-08
 -9.1150001E-04    5.5996423E-08
 -9.1100001E-04    5.7390089E-08
 -9.1050001E-04    5.5597447E-08
 -9.1000000E-04    5.0242029E-08
 -9.0950000E-04    4.1123933E-08
 -9.0899999E-04    2.8269511E-08
 -9.0849999E-04    1.1971705E-08
 -9.0799999E-04   -7.1845108E-09
 -9.0749998E-04   -2.8316585E-08
 -9.0699998E-04   -5.0262742E-08
 -9.0649998E-04   -7.1626694E-08
 -9.0599997E-04   -9.0849035E-08
 -9.0550003E-04   -1.0630338E-07
 -9.0500002E-04   -1.1641271E-07
 -9.0450002E-04   -1.1977893E-07
 -9.0400001E-04   -1.1531658E-07
 -9.0350001E-04   -1.0237982E-07
 -9.0300001E-04   -8.0871210E-08
 -9.0250000E-04   -5.1320637E-08
 -9.0200000E-04   -1.4923991E-08
 -9.0150000E-04    2.6466783E-08
 -9.0099999E-04    7.0407452E-08
 -9.0049999E-04    1.1398029E-07
 -8.9999998E-04    1.5396473E-07
 -8.9949998E-04    1.8705182E-07
 -8.9899998E-04    2.1009002E-07
 -8.9849997E-04    2.2034577E-07
 -8.9800003E-04    2.1575929E-07
 -8.9750002E-04    1.9517434E-07
 -8.9700002E-04    1.5852079E-07
 -8.9650002E-04    1.0693032E-07
 -8.9600001E-04    4.2769258E-08
 -8.9550001E-04   -3.0422257E-08
 -8.9500000E-04   -1.0808895E-07
 -8.9450000E-04   -1.8491360E-07
 -8.9400000E-04   -2.5515345E-07
 -8.9349999E-04   -3.1304046E-07
 -8.9299999E-04   -3.5321972E-07
 -8.9249999E-04   -3.7119435E-07
 -8.9199998E-04   -3.6374237E-07
 -8.9149998E-04   -3.2927022E-07
 -8.9099997E-04   -2.6806975E-07
 -8.9050003E-04   -1.8245058E-07
 -8.9000002E-04   -7.6727368E-08
 -8.8950002E-04    4.2948422E-08
 -8.8900002E-04    1.6891110E-07
 -8.8850001E-04    2.9244433E-07
 -8.8800001E-04    4.0435964E-07
 -8.8750001E-04    4.9565341E-07
 -8.8700000E-04    5.5819669E-07
 -8.8650000E-04    5.8540633E-07
 -8.8599999E-04    5.7284444E-07
 -8.8549999E-04    5.1869421E-07
 -8.8499999E-04    4.2406759E-07
 -8.8449998E-04    2.9311030E-07
 -8.8399998E-04    1.3288287E-07
 -8.8349998E-04   -4.6986131E-08
 -8.8299997E-04   -2.3486206E-07
 -8.8250003E-04   -4.1785023E-07
 -8.8200002E-04   -5.8267892E-07
 -8.8150002E-04   -7.1665932E-07
 -8.8100001E-04   -8.0865192E-07
 -8.8050001E-04   -8.4996668E-07
 -8.8000001E-04   -8.3512305E-07
 -8.7950000E-04   -7.6240593E-07
 -8.7900000E-04   -6.3416439E-07
 -8.7850000E-04   -4.5681901E-07
 -8.7799999E-04   -2.4056425E-07
 -8.7749999E-04    1.2239241E-09
 -8.7699998E-04    2.5284223E-07
 -8.7649998E-04    4.9732023E-07
 -8.7599998E-04    7.1761292E-07
 -8.7549997E-04    8.9783919E-07
 -8.7500003E-04    1.0244721E-06
 -8.7450002E-04    1.0873881E-06
 -8.7400002E-04    1.0806907E-06
 -8.7350002E-04    1.0032381E-06
 -8.7300001E-04    8.5882647E-07
 -8.7250001E-04    6.5600653E-07
 -8.7200000E-04    4.0753983E-07
 -8.7150000E-04    1.2952830E-07
 -8.7100000E-04   -1.5971972E-07
 -8.7049999E-04   -4.4100364E-07
 -8.6999999E-04   -6.9562452E-07
 -8.6949999E-04   -9.0674990E-07
 -8.6899998E-04   -1.0606414E-06
 -8.6849998E-04   -1.1476469E-06
 -8.6799997E-04   -1.1628777E-06
 -8.6750003E-04   -1.1065126E-06
 -8.6700002E-04   -9.8370811E-07
 -8.6650002E-04   -8.0411803E-07
 -8.6600002E-04   -5.8106650E-07
 -8.6550001E-04   -3.3044356E-07
 -8.6500001E-04   -6.9417268E-08
 -8.6450001E-04    1.8492588E-07
 -8.6400000E-04    4.1689583E-07
 -8.6350000E-04    6.1335533E-07
 -8.6299999E-04    7.6461851E-07
 -8.6249999E-04    8.6501541E-07
 -8.6199999E-04    9.1307714E-07
 -8.6149998E-04    9.1133143E-07
 -8.6099998E-04    8.6573533E-07
 -8.6049997E-04    7.8480696E-07
 -8.5999997E-04    6.7854756E-07
 -8.5950003E-04    5.5726724E-07
 -8.5900002E-04    4.3043815E-07
 -8.5850002E-04    3.0569885E-07
 -8.5800001E-04    1.8811906E-07
 -8.5750001E-04    7.9810455E-08
 -8.5700001E-04   -2.0066452E-08
 -8.5650000E-04   -1.1488927E-07
 -8.5600000E-04   -2.0978926E-07
 -8.5549999E-04   -3.1057226E-07
 -8.5499999E-04   -4.2245929E-07
 -8.5449999E-04   -5.4878836E-07
 -8.5399998E-04   -6.8983354E-07
 -8.5349998E-04   -8.4189662E-07
 -8.5299998E-04   -9.9681074E-07
 -8.5249997E-04   -1.1419610E-06
 -8.5200003E-04   -1.2608838E-06
 -8.5150002E-04   -1.3344492E-06
 -8.5100002E-04   -1.3425689E-06
 -8.5050002E-04   -1.2663137E-06
 -8.5000001E-04   -1.0902663E-06
 -8.4950001E-04   -8.0489701E-07
 -8.4900000E-04   -4.0871757E-07
 -8.4850000E-04    9.0029488E-08
 -8.4800000E-04    6.7237693E-07
 -8.4749999E-04    1.3085196E-06
 -8.4699999E-04    1.9587069E-06
 -8.4649998E-04    2.5751833E-06
 -8.4599998E-04    3.1051302E-06
 -8.4549998E-04    3.4944610E-06
 -8.4499997E-04    3.6922356E-06
 -8.4450003E-04    3.6553720E-06
 -8.4400002E-04    3.3532808E-06
 -8.4350002E-04    2.7720121E-06
 -8.4300002E-04    1.9175070E-06
 -8.4250001E-04    8.1758071E-07
 -8.4200001E-04   -4.7766162E-07
 -8.4150000E-04   -1.8971749E-06
 -8.4100000E-04   -3.3521578E-06
 -8.4050000E-04   -4.7409931E-06
 -8.3999999E-04   -5.9557133E-06
 -8.3949999E-04   -6.8896215E-06
 -8.3899999E-04   -7.4455634E-06
 -8.3849998E-04   -7.5442513E-06
 -8.3799998E-04   -7.1319955E-06
 -8.3749997E-04   -6.1871770E-06
 -8.3700003E-04   -4.7248536E-06
 -8.3650002E-04   -2.7989829E-06
 -8.3600002E-04   -5.0189396E-07
 -8.3550002E-04    2.0391742E-06
 -8.3500001E-04    4.6684363E-06
 -8.3450001E-04    7.2105672E-06
 -8.3400001E-04    9.4818743E-06
 -8.3350000E-04    1.1302951E-05
 -8.3300000E-04    1.2511976E-05
 -8.3249999E-04    1.2977704E-05
 -8.3199999E-04    1.2611167E-05
 -8.3149999E-04    1.1375125E-05
 -8.3099998E-04    9.2904120E-06
 -8.3049998E-04    6.4385185E-06
 -8.2999998E-04    2.9599578E-06
 -8.2949997E-04   -9.5171526E-07
 -8.2900003E-04   -5.0600793E-06
 -8.2850002E-04   -9.0997264E-06
 -8.2800002E-04   -1.2793069E-05
 -8.2750001E-04   -1.5869025E-05
 -8.2700001E-04   -1.8082350E-05
 -8.2650001E-04   -1.9232266E-05
 -8.2600000E-04   -1.9179008E-05
 -8.2550000E-04   -1.7857004E-05
 -8.2500000E-04   -1.5283564E-05
 -8.2449999E-04   -1.1562230E-05
 -8.2399999E-04   -6.8802801E-06
 -8.2349998E-04   -1.5002634E-06
 -8.2299998E-04    4.2541255E-06
 -8.2249998E-04    1.0017120E-05
 -8.2199997E-04    1.5403795E-05
 -8.2150003E-04    2.0035404E-05
 -8.2100002E-04    2.3565488E-05
 -8.2050002E-04    2.5704965E-05
 -8.2000002E-04    2.6244441E-05
 -8.1950001E-04    2.5072060E-05
 -8.1900001E-04    2.2185497E-05
 -8.1850000E-04    1.7697001E-05
 -8.1800000E-04    1.1830902E-05
 -8.1750000E-04    4.9134164E-06
 -8.1699999E-04   -2.6448347E-06
 -8.1649999E-04   -1.0372691E-05
 -8.1599999E-04   -1.7767323E-05
 -8.1549998E-04   -2.4326346E-05
 -8.1499998E-04   -2.9581130E-05
 -8.1449997E-04   -3.3129119E-05
 -8.1400003E-04   -3.4662975E-05
 -8.1350002E-04   -3.3994467E-05
 -8.1300002E-04   -3.1071377E-05
 -8.1250002E-04   -2.5986072E-05
 -8.1200001E-04   -1.8974904E-05
 -8.1150001E-04   -1.0408196E-05
 -8.1100001E-04   -7.7118148E-07
 -8.1050000E-04    9.3631197E-06
 -8.1000000E-04    1.9367570E-05
 -8.0949999E-04    2.8599126E-05
 -8.0899999E-04    3.6439280E-05
 -8.0849999E-04    4.2334148E-05
 -8.0799998E-04    4.5831690E-05
 -8.0749998E-04    4.6613561E-05
 -8.0699997E-04    4.4519471E-05
 -8.0649997E-04    3.9562325E-05
 -8.0600003E-04    3.1932959E-05
 -8.0550002E-04    2.1993928E-05
 -8.0500002E-04    1.0262500E-05
 -8.0450001E-04   -2.6163643E-06
 -8.0400001E-04   -1.5905563E-05
 -8.0350001E-04   -2.8817954E-05
 -8.0300000E-04   -4.0562569E-05
 -8.0250000E-04   -5.0392191E-05
 -8.0200000E-04   -5.7649468E-05
 -8.0149999E-04   -6.1808743E-05
 -8.0099999E-04   -6.2510997E-05
 -8.0049998E-04   -5.9589733E-05
 -7.9999998E-04   -5.3086031E-05
 -7.9949998E-04   -4.3251785E-05
 -7.9899997E-04   -3.0540628E-05
 -7.9850003E-04   -1.5586931E-05
 -7.9800002E-04    8.2613587E-07
 -7.9750002E-04    1.7807826E-05
 -7.9700002E-04    3.4408098E-05
 -7.9650001E-04    4.9670329E-05
 -7.9600001E-04    6.2685518E-05
 -7.9550000E-04    7.2645002E-05
 -7.9500000E-04    7.8888610E-05
 -7.9450000E-04    8.0945611E-05
 -7.9399999E-04    7.8565958E-05
 -7.9349999E-04    7.1739989E-05
 -7.9299998E-04    6.0705323E-05
 -7.9249998E-04    4.5940313E-05
 -7.9199998E-04    2.8144172E-05
 -7.9149997E-04    8.2046063E-06
 -7.9100003E-04   -1.2845558E-05
 -7.9050002E-04   -3.3880671E-05
 -7.9000002E-04   -5.3740870E-05
 -7.8950002E-04   -7.1294075E-05
 -7.8900001E-04   -8.5498163E-05
 -7.8850001E-04   -9.5460098E-05
 -7.8800000E-04   -1.0048883E-04
 -7.8750000E-04   -1.0013903E-04
 -7.8700000E-04   -9.4243260E-05
 -7.8649999E-04   -8.2930361E-05
 -7.8599999E-04   -6.6628971E-05
 -7.8549999E-04   -4.6055244E-05
 -7.8499998E-04   -2.2185028E-05
 -7.8449998E-04    3.7886548E-06
 -7.8399997E-04    3.0511215E-05
 -7.8350003E-04    5.6532841E-05
 -7.8300002E-04    8.0382582E-05
 -7.8250002E-04    1.0064674E-04
 -7.8200002E-04    1.1604765E-04
 -7.8150001E-04    1.2551885E-04
 -7.8100001E-04    1.2827262E-04
 -7.8050001E-04    1.2385573E-04
 -7.8000000E-04    1.1219036E-04
 -7.7950000E-04    9.3596740E-05
 -7.7899999E-04    6.8795744E-05
 -7.7849999E-04    3.8889841E-05
 -7.7799999E-04    5.3224248E-06
 -7.7749998E-04   -3.0183706E-05
 -7.7699998E-04   -6.5706627E-05
 -7.7649998E-04   -9.9221157E-05
 -7.7599997E-04   -1.2870601E-04
 -7.7550003E-04   -1.5225723E-04
 -7.7500002E-04   -1.6820175E-04
 -7.7450002E-04   -1.7520531E-04
 -7.7400001E-04   -1.7236779E-04
 -7.7350001E-04   -1.5930018E-04
 -7.7300001E-04   -1.3617746E-04
 -7.7250000E-04   -1.0376274E-04
 -7.7200000E-04   -6.3399428E-05
 -7.7150000E-04   -1.6969658E-05
 -7.7099999E-04    3.3181044E-05
 -7.7049999E-04    8.4350671E-05
 -7.6999998E-04    1.3361532E-04
 -7.6949998E-04    1.7798538E-04
 -7.6899998E-04    2.1457579E-04
 -7.6849997E-04    2.4078127E-04
 -7.6800003E-04    2.5444644E-04
 -7.6750002E-04    2.5402050E-04
 -7.6700002E-04    2.3868619E-04
 -7.6650002E-04    2.0845352E-04
 -7.6600001E-04    1.6421042E-04
 -7.6550001E-04    1.0772414E-04
 -7.6500000E-04    4.1590341E-05
 -7.6450000E-04   -3.0870782E-05
 -7.6400000E-04   -1.0576839E-04
 -7.6349999E-04   -1.7883882E-04
 -7.6299999E-04   -2.4567815E-04
 -7.6249999E-04   -3.0199756E-04
 -7.6199998E-04   -3.4388714E-04
 -7.6149998E-04   -3.6807286E-04
 -7.6099997E-04   -3.7214998E-04
 -7.6050003E-04   -3.5477767E-04
 -7.6000002E-04   -3.1581981E-04
 -7.5950002E-04   -2.5642067E-04
 -7.5900002E-04   -1.7900662E-04
 -7.5850001E-04   -8.7209344E-05
 -7.5800001E-04    1.4289013E-05
 -7.5750001E-04    1.1998373E-04
 -7.5700000E-04    2.2383829E-04
 -7.5650000E-04    3.1962350E-04
 -7.5599999E-04    4.0128632E-04
 -7.5549999E-04    4.6332716E-04
 -7.5499999E-04    5.0116237E-04
 -7.5449998E-04    5.1144836E-04
 -7.5399998E-04    4.9234543E-04
 -7.5349997E-04    4.4370117E-04
 -7.5299997E-04    3.6713833E-04
 -7.5250003E-04    2.6603678E-04
 -7.5200002E-04    1.4540534E-04
 -7.5150002E-04    1.1646742E-05
 -7.5100001E-04   -1.2777498E-04
 -7.5050001E-04   -2.6474780E-04
 -7.5000001E-04   -3.9098359E-04
 -7.4950000E-04   -4.9852132E-04
 -7.4900000E-04   -5.8023108E-04
 -7.4850000E-04   -6.3028722E-04
 -7.4799999E-04   -6.4457924E-04
 -7.4749999E-04   -6.2103203E-04
 -7.4699998E-04   -5.5981136E-04
 -7.4649998E-04   -4.6339681E-04
 -7.4599998E-04   -3.3651254E-04