 -1.2000001E-03    1.0000000E-24
 -1.1995001E-03    1.0000000E-24
 -1.1990000E-03    1.0000000E-24
 -1.1985000E-03    1.0000000E-24
 -1.1980000E-03    1.0000000E-24
 -1.1975000E-03    1.0000000E-24
 -1.1970000E-03    1.0000000E-24
 -1.1965000E-03    1.6870015E-24
 -1.1960000E-03   -1.1400019E-20
 -1.1955000E-03   -1.8518611E-19
 -1.1950000E-03   -1.5826401E-18
 -1.1945000E-03   -9.4590998E-18
 -1.1940000E-03   -4.4346470E-17
 -1.1935000E-03   -1.7346725E-16
 -1.1930000E-03   -5.8817708E-16
 -1.1925000E-03   -1.7736999E-15
 -1.1920000E-03   -4.8444809E-15
 -1.1915000E-03   -1.2146081E-14
 -1.1910000E-03   -2.8238373E-14
 -1.1905000E-03   -6.1349519E-14
 -1.1900000E-03   -1.2528796E-13
 -1.1895000E-03   -2.4157355E-13
 -1.1890000E-03   -4.4115043E-13
 -1.1885000E-03   -7.6444195E-13
 -1.1880000E-03   -1.2577089E-12
 -1.1875000E-03   -1.9627557E-12
 -1.1870000E-03   -2.8961805E-12
 -1.1865000E-03   -4.0138960E-12
 -1.1860000E-03   -5.1570059E-12
 -1.1854999E-03   -5.9768909E-12
 -1.1849999E-03   -5.8411058E-12
 -1.1845001E-03   -3.7279992E-12
 -1.1840001E-03    1.8729864E-12
 -1.1835000E-03    1.3026716E-11
 -1.1830000E-03    3.2341716E-11
 -1.1825000E-03    6.2828860E-11
 -1.1820000E-03    1.0756547E-10
 -1.1815000E-03    1.6909882E-10
 -1.1810000E-03    2.4853372E-10
 -1.1805000E-03    3.4427616E-10
 -1.1800000E-03    4.5045501E-10
 -1.1795000E-03    5.5511618E-10
 -1.1790000E-03    6.3838124E-10
 -1.1785000E-03    6.7087508E-10
 -1.1780000E-03    6.1284749E-10
 -1.1775000E-03    4.1451981E-10
 -1.1770000E-03    1.8258286E-11
 -1.1765000E-03   -6.3682104E-10
 -1.1760000E-03   -1.6073034E-09
 -1.1755000E-03   -2.9346900E-09
 -1.1750000E-03   -4.6314463E-09
 -1.1745000E-03   -6.6644716E-09
 -1.1740000E-03   -8.9372207E-09
 -1.1735000E-03   -1.1272453E-08
 -1.1730000E-03   -1.3398324E-08
 -1.1725000E-03   -1.4941197E-08
 -1.1720000E-03   -1.5428995E-08
 -1.1715000E-03   -1.4308955E-08
 -1.1710000E-03   -1.0983195E-08
 -1.1704999E-03   -4.8644173E-09
 -1.1699999E-03    4.5477617E-09
 -1.1695001E-03    1.7571884E-08
 -1.1690001E-03    3.4236301E-08
 -1.1685000E-03    5.4166126E-08
 -1.1680000E-03    7.6477740E-08
 -1.1675000E-03    9.9696450E-08
 -1.1670000E-03    1.2171486E-07
 -1.1665000E-03    1.3981058E-07
 -1.1660000E-03    1.5074006E-07
 -1.1655000E-03    1.5092202E-07
 -1.1650000E-03    1.3671644E-07
 -1.1645000E-03    1.0479663E-07
 -1.1640000E-03    5.2599038E-08
 -1.1635000E-03   -2.1176973E-08
 -1.1630000E-03   -1.1606138E-07
 -1.1625000E-03   -2.2935188E-07
 -1.1620000E-03   -3.5576215E-07
 -1.1615000E-03   -4.8724769E-07
 -1.1610000E-03   -6.1307526E-07
 -1.1605000E-03   -7.2019031E-07
 -1.1600000E-03   -7.9391884E-07
 -1.1595000E-03   -8.1901044E-07
 -1.1590000E-03   -7.8099424E-07
 -1.1585000E-03   -6.6777920E-07
 -1.1580000E-03   -4.7138593E-07
 -1.1575000E-03   -1.8965959E-07
 -1.1570000E-03    1.7221917E-07
 -1.1565000E-03    6.0062621E-07
 -1.1560000E-03    1.0729884E-06
 -1.1555000E-03    1.5580591E-06
 -1.1549999E-03    2.0171058E-06
 -1.1544999E-03    2.4060676E-06
 -1.1540001E-03    2.6786556E-06
 -1.1535001E-03    2.7902579E-06
 -1.1530000E-03    2.7023975E-06
 -1.1525000E-03    2.3874002E-06
 -1.1520000E-03    1.8328251E-06
 -1.1515000E-03    1.0451712E-06
 -1.1510000E-03    5.2359269E-08
 -1.1505000E-03   -1.0954717E-06
 -1.1500000E-03   -2.3272064E-06
 -1.1495000E-03   -3.5542359E-06
 -1.1490000E-03   -4.6761716E-06
 -1.1485000E-03   -5.5885475E-06
 -1.1480000E-03   -6.1920141E-06
 -1.1475000E-03   -6.4022856E-06
 -1.1470000E-03   -6.1599194E-06
 -1.1465000E-03   -5.4388743E-06
 -1.1460000E-03   -4.2527709E-06
 -1.1455000E-03   -2.6578844E-06
 -1.1450000E-03   -7.5209135E-07
 -1.1445000E-03    1.3306374E-06
 -1.1440000E-03    3.4301997E-06
 -1.1435000E-03    5.3742592E-06
 -1.1430000E-03    6.9950379E-06
 -1.1425000E-03    8.1474864E-06
 -1.1420000E-03    8.7269345E-06
 -1.1415000E-03    8.6840973E-06
 -1.1410000E-03    8.0353220E-06
 -1.1405000E-03    6.8661880E-06
 -1.1399999E-03    5.3270878E-06
 -1.1394999E-03    3.6201754E-06
 -1.1390001E-03    1.9779732E-06
 -1.1385001E-03    6.3503029E-07
 -1.1380001E-03   -2.0493523E-07
 -1.1375000E-03   -4.0301401E-07
 -1.1370000E-03    8.3901995E-08
 -1.1365000E-03    1.1795551E-06
 -1.1360000E-03    2.6764997E-06
 -1.1355000E-03    4.2396659E-06
 -1.1350000E-03    5.4277416E-06
 -1.1345000E-03    5.7330835E-06
 -1.1340000E-03    4.6387831E-06
 -1.1335000E-03    1.6891851E-06
 -1.1330000E-03   -3.4321213E-06
 -1.1325000E-03   -1.0824808E-05
 -1.1320000E-03   -2.0304224E-05
 -1.1315000E-03   -3.1353757E-05
 -1.1310000E-03   -4.3106676E-05
 -1.1305000E-03   -5.4365577E-05
 -1.1300000E-03   -6.3664498E-05
 -1.1295000E-03   -6.9375223E-05
 -1.1290000E-03   -6.9854483E-05
 -1.1285000E-03   -6.3623564E-05
 -1.1280000E-03   -4.9566948E-05
 -1.1275000E-03   -2.7131904E-05
 -1.1270000E-03    3.4922111E-06
 -1.1265000E-03    4.1237901E-05
 -1.1260000E-03    8.4089021E-05
 -1.1255000E-03    1.2909516E-04
 -1.1250000E-03    1.7248452E-04
 -1.1244999E-03    2.0988133E-04
 -1.1239999E-03    2.3662364E-04
 -1.1235001E-03    2.4816653E-04
 -1.1230001E-03    2.4054488E-04
 -1.1225000E-03    2.1085913E-04
 -1.1220000E-03    1.5773997E-04
 -1.1215000E-03    8.1742110E-05
 -1.1210000E-03   -1.4382229E-05
 -1.1205000E-03   -1.2557623E-04
 -1.1200000E-03   -2.4457395E-04
 -1.1195000E-03   -3.6222005E-04
 -1.1190000E-03   -4.6801750E-04
 -1.1185000E-03   -5.5088464E-04
 -1.1180000E-03   -6.0007995E-04
 -1.1175000E-03   -6.0623256E-04
 -1.1170000E-03   -5.6239497E-04
 -1.1165000E-03   -4.6502380E-04
 -1.1160000E-03   -3.1478543E-04
 -1.1155000E-03   -1.1708905E-04
 -1.1150000E-03    1.1774048E-04
 -1.1145000E-03    3.7471252E-04
 -1.1140000E-03    6.3487655E-04
 -1.1135000E-03    8.7647757E-04
 -1.1130000E-03    1.0765131E-03
 -1.1125000E-03    1.2125985E-03
 -1.1120000E-03    1.2650121E-03
 -1.1115000E-03    1.2187522E-03
 -1.1110000E-03    1.0654270E-03
 -1.1105000E-03    8.0478057E-04
 -1.1100000E-03    4.4568264E-04
 -1.1094999E-03    6.4261449E-06
 -1.1089999E-03   -4.8576918E-04
 -1.1084999E-03   -9.9609140E-04
 -1.1080001E-03   -1.4842830E-03
 -1.1075001E-03   -1.9074950E-03
 -1.1070000E-03   -2.2236716E-03
 -1.1065000E-03   -2.3952220E-03
 -1.1060000E-03   -2.3926822E-03
 -1.1055000E-03   -2.1980468E-03
 -1.1050000E-03   -1.8074426E-03
 -1.1045000E-03   -1.2328486E-03
 -1.1040000E-03   -5.0261465E-04
 -1.1035000E-03    3.3937232E-04
 -1.1030000E-03    1.2359333E-03
 -1.1025000E-03    2.1201828E-03
 -1.1020000E-03    2.9202634E-03
 -1.1015000E-03    3.5649184E-03
 -1.1010000E-03    3.9894921E-03
 -1.1005000E-03    4.1418700E-03
 -1.1000000E-03    3.9878460E-03
 -1.0995000E-03    3.5153991E-03
 -1.0990000E-03    2.7374241E-03
 -1.0985000E-03    1.6925629E-03
 -1.0980000E-03    4.4391543E-04
 -1.0975000E-03   -9.2441624E-04
 -1.0970000E-03   -2.3128123E-03
 -1.0965000E-03   -3.6133209E-03
 -1.0960000E-03   -4.7180457E-03
 -1.0955000E-03   -5.5280952E-03
 -1.0950000E-03   -5.9623583E-03
 -1.0945000E-03   -5.9653381E-03
 -1.0939999E-03   -5.5133109E-03
 -1.0934999E-03   -4.6181628E-03
 -1.0930001E-03   -3.3284388E-03
 -1.0925001E-03   -1.7273347E-03
 -1.0920000E-03    7.2369141E-05
 -1.0915000E-03    1.9361747E-03
 -1.0910000E-03    3.7180132E-03
 -1.0905000E-03    5.2719139E-03
 -1.0900000E-03    6.4642709E-03
 -1.0895000E-03    7.1856636E-03
 -1.0890000E-03    7.3611871E-03
 -1.0885000E-03    6.9583105E-03
 -1.0880000E-03    5.9914510E-03
 -1.0875000E-03    4.5227022E-03
 -1.0870000E-03    2.6584759E-03
 -1.0865000E-03    5.4214196E-04
 -1.0860000E-03   -1.6568525E-03
 -1.0855000E-03   -3.7566011E-03
 -1.0850000E-03   -5.5780024E-03
 -1.0845000E-03   -6.9603990E-03
 -1.0840000E-03   -7.7762147E-03
 -1.0835000E-03   -7.9432512E-03
 -1.0830000E-03   -7.4334461E-03
 -1.0825000E-03   -6.2771672E-03
 -1.0820000E-03   -4.5624757E-03
 -1.0815000E-03   -2.4292180E-03
 -1.0810000E-03   -5.8275833E-05
 -1.0805000E-03    2.3432556E-03
 -1.0800000E-03    4.5597828E-03
 -1.0795000E-03    6.3863331E-03
 -1.0790000E-03    7.6474063E-03
 -1.0784999E-03    8.2138376E-03
 -1.0779999E-03    8.0160676E-03
 -1.0775001E-03    7.0524700E-03
 -1.0770001E-03    5.3918092E-03
 -1.0765000E-03    3.1693622E-03
 -1.0760000E-03    5.7683955E-04
 -1.0755000E-03   -2.1532145E-03
 -1.0750000E-03   -4.7673211E-03
 -1.0745000E-03   -7.0136003E-03
 -1.0740000E-03   -8.6649777E-03
 -1.0735000E-03   -9.5409639E-03
 -1.0730000E-03   -9.5259612E-03
 -1.0725000E-03   -8.5822958E-03
 -1.0720000E-03   -6.7565884E-03
 -1.0715000E-03   -4.1786493E-03
 -1.0710000E-03   -1.0527233E-03
 -1.0705000E-03    2.3583779E-03
 -1.0700000E-03    5.7550562E-03
 -1.0695000E-03    8.8268341E-03
 -1.0690000E-03    1.1280163E-02
 -1.0685000E-03    1.2865657E-02
 -1.0680000E-03    1.3402246E-02
 -1.0675000E-03    1.2795955E-02
 -1.0670000E-03    1.1051398E-02
 -1.0665000E-03    8.2747377E-03
 -1.0660000E-03    4.6675433E-03
 -1.0655000E-03    5.1183708E-04
 -1.0650000E-03   -3.8525865E-03
 -1.0645000E-03   -8.0567384E-03
 -1.0640000E-03   -1.1734494E-02
 -1.0634999E-03   -1.4555326E-02
 -1.0629999E-03   -1.6254766E-02
 -1.0625001E-03   -1.6659770E-02
 -1.0620001E-03   -1.5706558E-02
 -1.0615001E-03   -1.3449118E-02
 -1.0610000E-03   -1.0057363E-02
 -1.0605000E-03   -5.8048344E-03
 -1.0600000E-03   -1.0468306E-03
 -1.0595000E-03    3.8093270E-03
 -1.0590000E-03    8.3393762E-03
 -1.0585000E-03    1.2139521E-02
 -1.0580000E-03    1.4862843E-02
 -1.0575000E-03    1.6251432E-02
 -1.0570000E-03    1.6161256E-02
 -1.0565000E-03    1.4577399E-02
 -1.0560000E-03    1.1618111E-02
 -1.0555000E-03    7.5270920E-03
 -1.0550000E-03    2.6544831E-03
 -1.0545000E-03   -2.5719348E-03
 -1.0540000E-03   -7.6829558E-03
 -1.0535000E-03   -1.2208469E-02
 -1.0530000E-03   -1.5718771E-02
 -1.0525000E-03   -1.7863026E-02
 -1.0520000E-03   -1.8401450E-02
 -1.0515000E-03   -1.7228313E-02
 -1.0510000E-03   -1.4383637E-02
 -1.0505000E-03   -1.0052437E-02
 -1.0500000E-03   -4.5514680E-03
 -1.0495000E-03    1.6954738E-03
 -1.0490000E-03    8.1916451E-03
 -1.0485000E-03    1.4407947E-02
 -1.0479999E-03    1.9826552E-02
 -1.0474999E-03    2.3983853E-02
 -1.0470001E-03    2.6509045E-02
 -1.0465001E-03    2.7155109E-02
 -1.0460000E-03    2.5819568E-02
 -1.0455000E-03    2.2553336E-02
 -1.0450000E-03    1.7557010E-02
 -1.0445000E-03    1.1165026E-02
 -1.0440000E-03    3.8191471E-03
 -1.0435000E-03   -3.9663627E-03
 -1.0430000E-03   -1.1644893E-02
 -1.0425000E-03   -1.8679542E-02
 -1.0420000E-03   -2.4583628E-02
 -1.0415000E-03   -2.8956387E-02
 -1.0410000E-03   -3.1511154E-02
 -1.0405000E-03   -3.2093961E-02
 -1.0400000E-03   -3.0691439E-02
 -1.0395000E-03   -2.7427861E-02
 -1.0390000E-03   -2.2551933E-02
 -1.0385000E-03   -1.6414965E-02
 -1.0380000E-03   -9.4424747E-03
 -1.0375000E-03   -2.1018528E-03
 -1.0370000E-03    5.1312856E-03
 -1.0365000E-03    1.1805375E-02
 -1.0360000E-03    1.7521553E-02
 -1.0355000E-03    2.1956857E-02
 -1.0350000E-03    2.4880799E-02
 -1.0345000E-03    2.6164714E-02
 -1.0340000E-03    2.5784045E-02
 -1.0335000E-03    2.3814125E-02
 -1.0329999E-03    2.0420520E-02
 -1.0324999E-03    1.5845230E-02
 -1.0319999E-03    1.0390099E-02
 -1.0315001E-03    4.3987520E-03
 -1.0310001E-03   -1.7618650E-03
 -1.0305000E-03   -7.7194860E-03
 -1.0300000E-03   -1.3113566E-02
 -1.0295000E-03   -1.7611088E-02
 -1.0290000E-03   -2.0921092E-02
 -1.0285000E-03   -2.2807965E-02
 -1.0280000E-03   -2.3103498E-02
 -1.0275000E-03   -2.1717621E-02
 -1.0270000E-03   -1.8647481E-02
 -1.0265000E-03   -1.3984262E-02
 -1.0260000E-03   -7.9169441E-03
 -1.0255000E-03   -7.3196762E-04
 -1.0250000E-03    7.1922326E-03
 -1.0245000E-03    1.5396785E-02
 -1.0240000E-03    2.3360675E-02
 -1.0235000E-03    3.0525936E-02
 -1.0230000E-03    3.6329262E-02
 -1.0225000E-03    4.0238839E-02
 -1.0220000E-03    4.1794371E-02
 -1.0215000E-03    4.0647637E-02
 -1.0210000E-03    3.6600325E-02
 -1.0205000E-03    2.9635601E-02
 -1.0200000E-03    1.9939804E-02
 -1.0195000E-03    7.9112248E-03
 -1.0190000E-03   -5.8466084E-03
 -1.0185000E-03   -2.0548396E-02
 -1.0180000E-03   -3.5267334E-02
 -1.0174999E-03   -4.8990682E-02
 -1.0169999E-03   -6.0687609E-02
 -1.0165001E-03   -6.9384821E-02
 -1.0160001E-03   -7.4244499E-02
 -1.0155000E-03   -7.4638069E-02
 -1.0150000E-03   -7.0209451E-02
 -1.0145000E-03   -6.0921490E-02
 -1.0140000E-03   -4.7080446E-02
 -1.0135000E-03   -2.9334882E-02
 -1.0130000E-03   -8.6472193E-03
 -1.0125000E-03    1.3761498E-02
 -1.0120000E-03    3.6490653E-02
 -1.0115000E-03    5.8057796E-02
 -1.0110000E-03    7.7007964E-02
 -1.0105000E-03    9.2025995E-02
 -1.0100000E-03    0.1020428    
 -1.0095000E-03    0.1063261    
 -1.0090000E-03    0.1045478    
 -1.0085000E-03    9.6821219E-02
 -1.0080000E-03    8.3703585E-02
 -1.0075000E-03    6.6163003E-02
 -1.0070000E-03    4.5511089E-02
 -1.0065000E-03    2.3305992E-02
 -1.0060000E-03    1.2332633E-03
 -1.0055000E-03   -1.9026017E-02
 -1.0050000E-03   -3.5928916E-02
 -1.0045000E-03   -4.8194848E-02
 -1.0040000E-03   -5.4909561E-02
 -1.0035000E-03   -5.5599730E-02
 -1.0030000E-03   -5.0271384E-02
 -1.0025000E-03   -3.9408479E-02
 -1.0019999E-03   -2.3931338E-02
 -1.0014999E-03   -5.1183980E-03
 -1.0010001E-03    1.5502277E-02
 -1.0005001E-03    3.6282238E-02
 -1.0000000E-03    5.5591378E-02
 -9.9950004E-04    7.1953967E-02
 -9.9900004E-04    8.4169894E-02
 -9.9850004E-04    9.1410488E-02
 -9.9800003E-04    9.3280435E-02
 -9.9750003E-04    8.9840502E-02
 -9.9700002E-04    8.1589423E-02
 -9.9650002E-04    6.9406860E-02
 -9.9600002E-04    5.4463394E-02
 -9.9550001E-04    3.8106043E-02
 -9.9500001E-04    2.1730529E-02
 -9.9450001E-04    6.6524274E-03
 -9.9400000E-04   -6.0105063E-03
 -9.9350000E-04   -1.5433714E-02
 -9.9299999E-04   -2.1150017E-02
 -9.9249999E-04   -2.3076780E-02
 -9.9199999E-04   -2.1503905E-02
 -9.9149998E-04   -1.7044391E-02
 -9.9099998E-04   -1.0552904E-02
 -9.9049998E-04   -3.0209487E-03
 -9.8999997E-04    4.5403265E-03
 -9.8949997E-04    1.1217509E-02
 -9.8899996E-04    1.6300194E-02
 -9.8849996E-04    1.9363079E-02
 -9.8799996E-04    2.0316089E-02
 -9.8749995E-04    1.9416993E-02
 -9.8699995E-04    1.7244752E-02
 -9.8649994E-04    1.4635842E-02
 -9.8600006E-04    1.2589667E-02
 -9.8550005E-04    1.2152409E-02
 -9.8500005E-04    1.4291072E-02
 -9.8450005E-04    1.9770646E-02
 -9.8400004E-04    2.9047303E-02
 -9.8350004E-04    4.2189185E-02
 -9.8300003E-04    5.8833785E-02
 -9.8250003E-04    7.8187518E-02
 -9.8200003E-04    9.9068977E-02
 -9.8150002E-04    0.1199931    
 -9.8100002E-04    0.1392893    
 -9.8050002E-04    0.1552439    
 -9.8000001E-04    0.1662522    
 -9.7950001E-04    0.1709694    
 -9.7900000E-04    0.1684421    
 -9.7850000E-04    0.1582116    
 -9.7800000E-04    0.1403760    
 -9.7749999E-04    0.1156063    
 -9.7699999E-04    8.5114047E-02
 -9.7649998E-04    5.0571617E-02
 -9.7599998E-04    1.3993405E-02
 -9.7549998E-04   -2.2413343E-02
 -9.7499997E-04   -5.6414437E-02
 -9.7450003E-04   -8.5917212E-02
 -9.7400002E-04   -0.1091270    
 -9.7350002E-04   -0.1246780    
 -9.7300002E-04   -0.1317284    
 -9.7250001E-04   -0.1300112    
 -9.7200001E-04   -0.1198382    
 -9.7150001E-04   -0.1020578    
 -9.7100000E-04   -7.7971391E-02
 -9.7050000E-04   -4.9217340E-02
 -9.6999999E-04   -1.7633904E-02
 -9.6949999E-04    1.4886432E-02
 -9.6899999E-04    4.6537824E-02
 -9.6849998E-04    7.5725131E-02
 -9.6799998E-04    0.1011612    
 -9.6749997E-04    0.1219302    
 -9.6700003E-04    0.1375148    
 -9.6650003E-04    0.1477850    
 -9.6600002E-04    0.1529561    
 -9.6550002E-04    0.1535199    
 -9.6500001E-04    0.1501593    
 -9.6450001E-04    0.1436573    
 -9.6400001E-04    0.1348088    
 -9.6350000E-04    0.1243461    
 -9.6300000E-04    0.1128837    
 -9.6249999E-04    0.1008873    
 -9.6199999E-04    8.8668525E-02
 -9.6149999E-04    7.6402657E-02
 -9.6099998E-04    6.4165041E-02
 -9.6049998E-04    5.1979832E-02
 -9.5999998E-04    3.9872617E-02
 -9.5949997E-04    2.7918980E-02
 -9.5900003E-04    1.6281558E-02
 -9.5850002E-04    5.2298922E-03
 -9.5800002E-04   -4.8602219E-03
 -9.5750001E-04   -1.3528480E-02
 -9.5700001E-04   -2.0270566E-02
 -9.5650001E-04   -2.4592554E-02
 -9.5600000E-04   -2.6072338E-02
 -9.5550000E-04   -2.4420032E-02
 -9.5500000E-04   -1.9529184E-02
 -9.5449999E-04   -1.1511378E-02
 -9.5399999E-04   -7.0864439E-04
 -9.5349998E-04    1.2319406E-02
 -9.5299998E-04    2.6833821E-02
 -9.5249998E-04    4.1976940E-02
 -9.5199997E-04    5.6849524E-02
 -9.5150003E-04    7.0596300E-02
 -9.5100002E-04    8.2490310E-02
 -9.5050002E-04    9.2006318E-02
 -9.5000002E-04    9.8874167E-02
 -9.4950001E-04    0.1031049    
 -9.4900001E-04    0.1049856    
 -9.4850000E-04    0.1050417    
 -9.4800000E-04    0.1039697    
 -9.4750000E-04    0.1025477    
 -9.4699999E-04    0.1015312    
 -9.4649999E-04    0.1015474    
 -9.4599999E-04    0.1029997    
 -9.4549998E-04    0.1059942    
 -9.4499998E-04    0.1102982    
 -9.4449997E-04    0.1153383    
 -9.4400003E-04    0.1202401    
 -9.4350002E-04    0.1239087    
 -9.4300002E-04    0.1251440    
 -9.4250002E-04    0.1227800    
 -9.4200001E-04    0.1158344    
 -9.4150001E-04    0.1036536    
 -9.4100001E-04    8.6036094E-02
 -9.4050000E-04    6.3320637E-02
 -9.4000000E-04    3.6425181E-02
 -9.3949999E-04    6.8305489E-03
 -9.3899999E-04   -2.3494596E-02
 -9.3849999E-04   -5.2224245E-02
 -9.3799998E-04   -7.6851934E-02
 -9.3749998E-04   -9.4899990E-02
 -9.3699998E-04   -0.1041432    
 -9.3649997E-04   -0.1028265    
 -9.3600003E-04   -8.9855537E-02
 -9.3550002E-04   -6.4941764E-02
 -9.3500002E-04   -2.8685031E-02
 -9.3450001E-04    1.7415898E-02
 -9.3400001E-04    7.1029671E-02
 -9.3350001E-04    0.1291328    
 -9.3300000E-04    0.1882143    
 -9.3250000E-04    0.2445296    
 -9.3200000E-04    0.2943815    
 -9.3149999E-04    0.3344065    
 -9.3099999E-04    0.3618395    
 -9.3049998E-04    0.3747359    
 -9.2999998E-04    0.3721291    
 -9.2949998E-04    0.3541120    
 -9.2899997E-04    0.3218311    
 -9.2850003E-04    0.2773978    
 -9.2800002E-04    0.2237208    
 -9.2750002E-04    0.1642770    
 -9.2700002E-04    0.1028391    
 -9.2650001E-04    4.3185655E-02
 -9.2600001E-04   -1.1182108E-02
 -9.2550000E-04   -5.7291992E-02
 -9.2500000E-04   -9.2899546E-02
 -9.2450000E-04   -0.1166179    
 -9.2399999E-04   -0.1279693    
 -9.2349999E-04   -0.1273565    
 -9.2299999E-04   -0.1159590    
 -9.2249998E-04   -9.5568679E-02
 -9.2199998E-04   -6.8380184E-02
 -9.2149997E-04   -3.6760591E-02
 -9.2100003E-04   -3.0204081E-03
 -9.2050002E-04    3.0791009E-02
 -9.2000002E-04    6.3046113E-02
 -9.1950002E-04    9.2641436E-02
 -9.1900001E-04    0.1190333    
 -9.1850001E-04    0.1422063    
 -9.1800001E-04    0.1625800    
 -9.1750000E-04    0.1808680    
 -9.1700000E-04    0.1979053    
 -9.1649999E-04    0.2144670    
 -9.1599999E-04    0.2310979    
 -9.1549999E-04    0.2479754    
 -9.1499998E-04    0.2648221    
 -9.1449998E-04    0.2808788    
 -9.1399997E-04    0.2949442    
 -9.1349997E-04    0.3054775    
 -9.1300003E-04    0.3107560    
 -9.1250002E-04    0.3090707    
 -9.1200002E-04    0.2989410    
 -9.1150001E-04    0.2793238    
 -9.1100001E-04    0.2497956    
 -9.1050001E-04    0.2106867    
 -9.1000000E-04    0.1631477    
 -9.0950000E-04    0.1091426    
 -9.0899999E-04    5.1359888E-02
 -9.0849999E-04   -6.9492976E-03
 -9.0799999E-04   -6.2197417E-02
 -9.0749998E-04   -0.1107305    
 -9.0699998E-04   -0.1491193    
 -9.0649998E-04   -0.1744460    
 -9.0599997E-04   -0.1845586    
 -9.0550003E-04   -0.1782716    
 -9.0500002E-04   -0.1554908    
 -9.0450002E-04   -0.1172515    
 -9.0400001E-04   -6.5663576E-02
 -9.0350001E-04   -3.7676697E-03
 -9.0300001E-04    6.4687423E-02
 -9.0250000E-04    0.1355267    
 -9.0200000E-04    0.2044671    
 -9.0150000E-04    0.2674447    
 -9.0099999E-04    0.3209228    
 -9.0049999E-04    0.3621548    
 -8.9999998E-04    0.3893802    
 -8.9949998E-04    0.4019372    
 -8.9899998E-04    0.4002835    
 -8.9849997E-04    0.3859241    
 -8.9800003E-04    0.3612559    
 -8.9750002E-04    0.3293408    
 -8.9700002E-04    0.2936316    
 -8.9650002E-04    0.2576717    
 -8.9600001E-04    0.2247984    
 -8.9550001E-04    0.1978730    
 -8.9500000E-04    0.1790606    
 -8.9450000E-04    0.1696776    
 -8.9400000E-04    0.1701182    
 -8.9349999E-04    0.1798621    
 -8.9299999E-04    0.1975624    
 -8.9249999E-04    0.2212013    
 -8.9199998E-04    0.2482983    
 -8.9149998E-04    0.2761513    
 -8.9099997E-04    0.3020872    
 -8.9050003E-04    0.3237011    
 -8.9000002E-04    0.3390618    
 -8.8950002E-04    0.3468687    
 -8.8900002E-04    0.3465472    
 -8.8850001E-04    0.3382767    
 -8.8800001E-04    0.3229516    
 -8.8750001E-04    0.3020818    
 -8.8700000E-04    0.2776425    
 -8.8650000E-04    0.2518899    
 -8.8599999E-04    0.2271587    
 -8.8549999E-04    0.2056598    
 -8.8499999E-04    0.1892958    
 -8.8449998E-04    0.1795087    
 -8.8399998E-04    0.1771701    
 -8.8349998E-04    0.1825236    
 -8.8299997E-04    0.1951784    
 -8.8250003E-04    0.2141550    
 -8.8200002E-04    0.2379754    
 -8.8150002E-04    0.2647882    
 -8.8100001E-04    0.2925183    
 -8.8050001E-04    0.3190265    
 -8.8000001E-04    0.3422691    
 -8.7950000E-04    0.3604422    
 -8.7900000E-04    0.3721040    
 -8.7850000E-04    0.3762667    
 -8.7799999E-04    0.3724524    
 -8.7749999E-04    0.3607137    
 -8.7699998E-04    0.3416178    
 -8.7649998E-04    0.3161996    
 -8.7599998E-04    0.2858870    
 -8.7549997E-04    0.2524065    
 -8.7500003E-04    0.2176756    
 -8.7450002E-04    0.1836883    
 -8.7400002E-04    0.1524016    
 -8.7350002E-04    0.1256284    
 -8.7300001E-04    0.1049416    
 -8.7250001E-04    9.1593944E-02
 -8.7200000E-04    8.6456060E-02
 -8.7150000E-04    8.9975223E-02
 -8.7100000E-04    0.1021554    
 -8.7049999E-04    0.1225595    
 -8.6999999E-04    0.1503327    
 -8.6949999E-04    0.1842463    
 -8.6899998E-04    0.2227608    
 -8.6849998E-04    0.2641034    
 -8.6799997E-04    0.3063605    
 -8.6750003E-04    0.3475769    
 -8.6700002E-04    0.3858599    
 -8.6650002E-04    0.4194824    
 -8.6600002E-04    0.4469780    
 -8.6550001E-04    0.4672244    
 -8.6500001E-04    0.4795073    
 -8.6450001E-04    0.4835624    
 -8.6400000E-04    0.4795895    
 -8.6350000E-04    0.4682389    
 -8.6299999E-04    0.4505678    
 -8.6249999E-04    0.4279701    
 -8.6199999E-04    0.4020832    
 -8.6149998E-04    0.3746766    
 -8.6099998E-04    0.3475316    
 -8.6049997E-04    0.3223195    
 -8.5999997E-04    0.3004884    
 -8.5950003E-04    0.2831662    
 -8.5900002E-04    0.2710896    
 -8.5850002E-04    0.2645632    
 -8.5800001E-04    0.2634547    
 -8.5750001E-04    0.2672257    
 -8.5700001E-04    0.2749963    
 -8.5650000E-04    0.2856410    
 -8.5600000E-04    0.2979046    
 -8.5549999E-04    0.3105329    
 -8.5499999E-04    0.3224034    
 -8.5449999E-04    0.3326478    
 -8.5399998E-04    0.3407532    
 -8.5349998E-04    0.3466343    
 -8.5299998E-04    0.3506670    
 -8.5249997E-04    0.3536820    
 -8.5200003E-04    0.3569140    
 -8.5150002E-04    0.3619120    
 -8.5100002E-04    0.3704150    
 -8.5050002E-04    0.3842013    
 -8.5000001E-04    0.4049250    
 -8.4950001E-04    0.4339507    
 -8.4900000E-04    0.4722004    
 -8.4850000E-04    0.5200263    
 -8.4800000E-04    0.5771198    
 -8.4749999E-04    0.6424676    
 -8.4699999E-04    0.7143591    
 -8.4649998E-04    0.7904490    
 -8.4599998E-04    0.8678724    
 -8.4549998E-04    0.9434070    
 -8.4499997E-04     1.013673    
 -8.4450003E-04     1.075360    
 -8.4400002E-04     1.125459    
 -8.4350002E-04     1.161496    
 -8.4300002E-04     1.181734    
 -8.4250001E-04     1.185342    
 -8.4200001E-04     1.172511    
 -8.4150000E-04     1.144501    
 -8.4100000E-04     1.103619    
 -8.4050000E-04     1.053127    
 -8.3999999E-04    0.9970776    
 -8.3949999E-04    0.9400774    
 -8.3899999E-04    0.8870121    
 -8.3849998E-04    0.8427290    
 -8.3799998E-04    0.8117068    
 -8.3749997E-04    0.7977351    
 -8.3700003E-04    0.8036224    
 -8.3650002E-04    0.8309593    
 -8.3600002E-04    0.8799533    
 -8.3550002E-04    0.9493529    
 -8.3500001E-04     1.036469    
 -8.3450001E-04     1.137302    
 -8.3400001E-04     1.246762    
 -8.3350000E-04     1.358978    
 -8.3300000E-04     1.467685    
 -8.3249999E-04     1.566640    
 -8.3199999E-04     1.650064    
 -8.3149999E-04     1.713070    
 -8.3099998E-04     1.752033    
 -8.3049998E-04     1.764887    
 -8.2999998E-04     1.751318    
 -8.2949997E-04     1.712830    
 -8.2900003E-04     1.652681    
 -8.2850002E-04     1.575680    
 -8.2800002E-04     1.487870    
 -8.2750001E-04     1.396097    
 -8.2700001E-04     1.307520    
 -8.2650001E-04     1.229071    
 -8.2600000E-04     1.166933    
 -8.2550000E-04     1.126064    
 -8.2500000E-04     1.109800    
 -8.2449999E-04     1.119594    
 -8.2399999E-04     1.154893    
 -8.2349998E-04     1.213177    
 -8.2299998E-04     1.290161    
 -8.2249998E-04     1.380142    
 -8.2199997E-04     1.476464    
 -8.2150003E-04     1.572071    
 -8.2100002E-04     1.660095    
 -8.2050002E-04     1.734429    
 -8.2000002E-04     1.790238    
 -8.1950001E-04     1.824362    
 -8.1900001E-04     1.835573    
 -8.1850000E-04     1.824661    
 -8.1800000E-04     1.794338    
 -8.1750000E-04     1.748976    
 -8.1699999E-04     1.694179    
 -8.1649999E-04     1.636256    
 -8.1599999E-04     1.581620    
 -8.1549998E-04     1.536174    
 -8.1499998E-04     1.504747    
 -8.1449997E-04     1.490624    
 -8.1400003E-04     1.495231    
 -8.1350002E-04     1.517986    
 -8.1300002E-04     1.556351    
 -8.1250002E-04     1.606076    
 -8.1200001E-04     1.661611    
 -8.1150001E-04     1.716655    
 -8.1100001E-04     1.764789    
 -8.1050000E-04     1.800126    
 -8.1000000E-04     1.817934    
 -8.0949999E-04     1.815142    
 -8.0899999E-04     1.790703    
 -8.0849999E-04     1.745764    
 -8.0799998E-04     1.683622    
 -8.0749998E-04     1.609466    
 -8.0699997E-04     1.529934    
 -8.0649997E-04     1.452509    
 -8.0600003E-04     1.384827    
 -8.0550002E-04     1.333946    
 -8.0500002E-04     1.305660    
 -8.0450001E-04     1.303918    
 -8.0400001E-04     1.330408    
 -8.0350001E-04     1.384346    
 -8.0300000E-04     1.462504    
 -8.0250000E-04     1.559466    
 -8.0200000E-04     1.668099    
 -8.0149999E-04     1.780188    
 -8.0099999E-04     1.887189    
 -8.0049998E-04     1.981016    
 -7.9999998E-04     2.054788    
 -7.9949998E-04     2.103475    
 -7.9899997E-04     2.124355    
 -7.9850003E-04     2.117271    
 -7.9800002E-04     2.084624    
 -7.9750002E-04     2.031128    
 -7.9700002E-04     1.963348    
 -7.9650001E-04     1.889044    
 -7.9600001E-04     1.816414    
 -7.9550000E-04     1.753295    
 -7.9500000E-04     1.706400    
 -7.9450000E-04     1.680677    
 -7.9399999E-04     1.678849    
 -7.9349999E-04     1.701177    
 -7.9299998E-04     1.745479    
 -7.9249998E-04     1.807400    
 -7.9199998E-04     1.880894    
 -7.9149997E-04     1.958889    
 -7.9100003E-04     2.034050    
 -7.9050002E-04     2.099560    
 -7.9000002E-04     2.149854    
 -7.8950002E-04     2.181204    
 -7.8900001E-04     2.192114    
 -7.8850001E-04     2.183472    
 -7.8800000E-04     2.158441    
 -7.8750000E-04     2.122103    
 -7.8700000E-04     2.080888    
 -7.8649999E-04     2.041851    
 -7.8599999E-04     2.011869    
 -7.8549999E-04     1.996851    
 -7.8499998E-04     2.001035    
 -7.8449998E-04     2.026463    
 -7.8399997E-04     2.072685    
 -7.8350003E-04     2.136733    
 -7.8300002E-04     2.213370    
 -7.8250002E-04     2.295600    
 -7.8200002E-04     2.375385    
 -7.8150001E-04     2.444499    
 -7.8100001E-04     2.495433    
 -7.8050001E-04     2.522255    
 -7.8000000E-04     2.521331    
 -7.7950000E-04     2.491831    
 -7.7899999E-04     2.435957    
 -7.7849999E-04     2.358865    
 -7.7799999E-04     2.268274    
 -7.7749998E-04     2.173802    
 -7.7699998E-04     2.086087    
 -7.7649998E-04     2.015767    
 -7.7599997E-04     1.972442    
 -7.7550003E-04     1.963699    
 -7.7500002E-04     1.994308    
 -7.7450002E-04     2.065688    
 -7.7400001E-04     2.175671    
 -7.7350001E-04     2.318629    
 -7.7300001E-04     2.485921    
 -7.7250000E-04     2.666653    
 -7.7200000E-04     2.848656    
 -7.7150000E-04     3.019601    
 -7.7099999E-04     3.168133    
 -7.7049999E-04     3.284922    
 -7.6999998E-04     3.363511    
 -7.6949998E-04     3.400899    
 -7.6899998E-04     3.397770    
 -7.6849997E-04     3.358382    
 -7.6800003E-04     3.290086    
 -7.6750002E-04     3.202566    
 -7.6700002E-04     3.106844    
 -7.6650002E-04     3.014170    
 -7.6600001E-04     2.934909    
 -7.6550001E-04     2.877531    
 -7.6500000E-04     2.847818    
 -7.6450000E-04     2.848359    
 -7.6400000E-04     2.878392    
 -7.6349999E-04     2.933992    
 -7.6299999E-04     3.008611    
 -7.6249999E-04     3.093874    
 -7.6199998E-04     3.180571    
 -7.6149998E-04     3.259727    
 -7.6099997E-04     3.323636    
 -7.6050003E-04     3.366737    
 -7.6000002E-04     3.386255    
 -7.5950002E-04     3.382520    
 -7.5900002E-04     3.358927    
 -7.5850001E-04     3.321557    
 -7.5800001E-04     3.278479    
 -7.5750001E-04     3.238820    
 -7.5700000E-04     3.211705    
 -7.5650000E-04     3.205172    
 -7.5599999E-04     3.225198    
 -7.5549999E-04     3.274937    
 -7.5499999E-04     3.354264    
 -7.5449998E-04     3.459675    
 -7.5399998E-04     3.584569    
 -7.5349997E-04     3.719885    
 -7.5299997E-04     3.855027    
 -7.5250003E-04     3.978991    
 -7.5200002E-04     4.081569    
 -7.5150002E-04     4.154497    
 -7.5100001E-04     4.192423    
 -7.5050001E-04     4.193589    
 -7.5000001E-04     4.160135    
 -7.4950000E-04     4.097993    
 -7.4900000E-04     4.016363    
 -7.4850000E-04     3.926826    
 -7.4799999E-04     3.842173    
 -7.4749999E-04     3.775069    
 -7.4699998E-04     3.736699    
 -7.4649998E-04     3.735537    
 -7.4599998E-04     3.776364    