 -1.2000001E-03    1.0000000E-24
 -1.1995001E-03    1.0000000E-24
 -1.1990000E-03    1.0000000E-24
 -1.1985000E-03    1.0000000E-24
 -1.1980000E-03    1.0000000E-24
 -1.1975000E-03    1.0000000E-24
 -1.1970000E-03    1.0000000E-24
 -1.1965000E-03    1.0000000E-24
 -1.1960000E-03    1.0000000E-24
 -1.1955000E-03    1.0000001E-24
 -1.1950000E-03    1.0000002E-24
 -1.1945000E-03    1.0000002E-24
 -1.1940000E-03    1.0000002E-24
 -1.1935000E-03    1.0000002E-24
 -1.1930000E-03    1.0000002E-24
 -1.1925000E-03    1.0000002E-24
 -1.1920000E-03    1.0000002E-24
 -1.1915000E-03    1.0000002E-24
 -1.1910000E-03    1.0000002E-24
 -1.1905000E-03    1.0000002E-24
 -1.1900000E-03    1.0000002E-24
 -1.1895000E-03    1.0000002E-24
 -1.1890000E-03    1.0000002E-24
 -1.1885000E-03    1.0000002E-24
 -1.1880000E-03    1.0000002E-24
 -1.1875000E-03    1.0000002E-24
 -1.1870000E-03    1.0000002E-24
 -1.1865000E-03    1.0000002E-24
 -1.1860000E-03    1.0000002E-24
 -1.1854999E-03    1.0000002E-24
 -1.1849999E-03    1.0000001E-24
 -1.1845001E-03    1.0000000E-24
 -1.1840001E-03    1.0000000E-24
 -1.1835000E-03    1.0000000E-24
 -1.1830000E-03    1.0000000E-24
 -1.1825000E-03    1.0000000E-24
 -1.1820000E-03    1.0000000E-24
 -1.1815000E-03    1.0000000E-24
 -1.1810000E-03    1.0000000E-24
 -1.1805000E-03    1.0000000E-24
 -1.1800000E-03    1.0000000E-24
 -1.1795000E-03    1.0000001E-24
 -1.1790000E-03    1.0000002E-24
 -1.1785000E-03    1.0000003E-24
 -1.1780000E-03    1.0000003E-24
 -1.1775000E-03    1.0000003E-24
 -1.1770000E-03    1.0000003E-24
 -1.1765000E-03    1.0000003E-24
 -1.1760000E-03    1.0000003E-24
 -1.1755000E-03    1.0000003E-24
 -1.1750000E-03    1.0000002E-24
 -1.1745000E-03    1.0000001E-24
 -1.1740000E-03    1.0000000E-24
 -1.1735000E-03    9.9999992E-25
 -1.1730000E-03    9.9999992E-25
 -1.1725000E-03    9.9999992E-25
 -1.1720000E-03    9.9999992E-25
 -1.1715000E-03    9.9999992E-25
 -1.1710000E-03    9.9999992E-25
 -1.1704999E-03    9.9999992E-25
 -1.1699999E-03    9.9999992E-25
 -1.1695001E-03    9.9999992E-25
 -1.1690001E-03    1.0000000E-24
 -1.1685000E-03    1.0000001E-24
 -1.1680000E-03    1.0000002E-24
 -1.1675000E-03    1.0000003E-24
 -1.1670000E-03    1.0000004E-24
 -1.1665000E-03    1.0000004E-24
 -1.1660000E-03    1.0000004E-24
 -1.1655000E-03    1.0000004E-24
 -1.1650000E-03    1.0000004E-24
 -1.1645000E-03    1.0000004E-24
 -1.1640000E-03    1.0000004E-24
 -1.1635000E-03    1.0000004E-24
 -1.1630000E-03    1.0000003E-24
 -1.1625000E-03    1.0000002E-24
 -1.1620000E-03    1.0000001E-24
 -1.1615000E-03    1.0000001E-24
 -1.1610000E-03    1.0000001E-24
 -1.1605000E-03    1.0000001E-24
 -1.1600000E-03    1.0000001E-24
 -1.1595000E-03    1.0000001E-24
 -1.1590000E-03    1.0000001E-24
 -1.1585000E-03    1.0000001E-24
 -1.1580000E-03    1.0000001E-24
 -1.1575000E-03    1.0000002E-24
 -1.1570000E-03    1.0000003E-24
 -1.1565000E-03    1.0000004E-24
 -1.1560000E-03    1.0000004E-24
 -1.1555000E-03    1.0000004E-24
 -1.1549999E-03    1.0000004E-24
 -1.1544999E-03    1.0000004E-24
 -1.1540001E-03    1.0000004E-24
 -1.1535001E-03    1.0000004E-24
 -1.1530000E-03    1.0000003E-24
 -1.1525000E-03    1.0000002E-24
 -1.1520000E-03    1.0000001E-24
 -1.1515000E-03    1.0000000E-24
 -1.1510000E-03    9.9999992E-25
 -1.1505000E-03    9.9999992E-25
 -1.1500000E-03    9.9999992E-25
 -1.1495000E-03    9.9999992E-25
 -1.1490000E-03    1.0000000E-24
 -1.1485000E-03    1.0000001E-24
 -1.1480000E-03    1.0000002E-24
 -1.1475000E-03    1.0000003E-24
 -1.1470000E-03    1.0000004E-24
 -1.1465000E-03    1.0000005E-24
 -1.1460000E-03    1.0000006E-24
 -1.1455000E-03    1.0000006E-24
 -1.1450000E-03    1.0000006E-24
 -1.1445000E-03    1.0000005E-24
 -1.1440000E-03    1.0000004E-24
 -1.1435000E-03    1.0000003E-24
 -1.1430000E-03    1.0000002E-24
 -1.1425000E-03    1.0000000E-24
 -1.1420000E-03    9.9999982E-25
 -1.1415000E-03    9.9999972E-25
 -1.1410000E-03    9.9999963E-25
 -1.1405000E-03    9.9999953E-25
 -1.1399999E-03    9.9999953E-25
 -1.1394999E-03    9.9999953E-25
 -1.1390001E-03    9.9999963E-25
 -1.1385001E-03    9.9999972E-25
 -1.1380001E-03    9.9999982E-25
 -1.1375000E-03    1.0000000E-24
 -1.1370000E-03    1.0000002E-24
 -1.1365000E-03    1.0000004E-24
 -1.1360000E-03    1.0000006E-24
 -1.1355000E-03    1.0000007E-24
 -1.1350000E-03    1.0000008E-24
 -1.1345000E-03    1.0000008E-24
 -1.1340000E-03    1.0000008E-24
 -1.1335000E-03    1.0000007E-24
 -1.1330000E-03    1.0000006E-24
 -1.1325000E-03    1.0000005E-24
 -1.1320000E-03    1.0000004E-24
 -1.1315000E-03    1.0000003E-24
 -1.1310000E-03    1.0000002E-24
 -1.1305000E-03    1.0000001E-24
 -1.1300000E-03    1.0000000E-24
 -1.1295000E-03    1.0000000E-24
 -1.1290000E-03    1.0000000E-24
 -1.1285000E-03    1.0000001E-24
 -1.1280000E-03    1.0000002E-24
 -1.1275000E-03    1.0000003E-24
 -1.1270000E-03    1.0000004E-24
 -1.1265000E-03    1.0000005E-24
 -1.1260000E-03    1.0000006E-24
 -1.1255000E-03    1.0000006E-24
 -1.1250000E-03    1.0000005E-24
 -1.1244999E-03    1.0000003E-24
 -1.1239999E-03    9.9999992E-25
 -1.1235001E-03    9.9999943E-25
 -1.1230001E-03    9.9999874E-25
 -1.1225000E-03    9.9999785E-25
 -1.1220000E-03    9.9999686E-25
 -1.1215000E-03    9.9999578E-25
 -1.1210000E-03    9.9999469E-25
 -1.1205000E-03    9.9999371E-25
 -1.1200000E-03    9.9999302E-25
 -1.1195000E-03    9.9999282E-25
 -1.1190000E-03    9.9999351E-25
 -1.1185000E-03    9.9999548E-25
 -1.1180000E-03    9.9999913E-25
 -1.1175000E-03    1.0000050E-24
 -1.1170000E-03    1.0000135E-24
 -1.1165000E-03    1.0000250E-24
 -1.1160000E-03    1.0000396E-24
 -1.1155000E-03    1.0000570E-24
 -1.1150000E-03    1.0000766E-24
 -1.1145000E-03    1.0000970E-24
 -1.1140000E-03    1.0001156E-24
 -1.1135000E-03    1.0001294E-24
 -1.1130000E-03    1.0001338E-24
 -1.1125000E-03    1.0001233E-24
 -1.1120000E-03    1.0000912E-24
 -1.1115000E-03    1.0000305E-24
 -1.1110000E-03    9.9993385E-25
 -1.1105000E-03    9.9979501E-25
 -1.1100000E-03    9.9960983E-25
 -1.1094999E-03    9.9937781E-25
 -1.1089999E-03    9.9910427E-25
 -1.1084999E-03    9.9880223E-25
 -1.1080001E-03    9.9849477E-25
 -1.1075001E-03    9.9821690E-25
 -1.1070000E-03    9.9801702E-25
 -1.1065000E-03    9.9795736E-25
 -1.1060000E-03    9.9811297E-25
 -1.1055000E-03    9.9856843E-25
 -1.1050000E-03    9.9941252E-25
 -1.1045000E-03    1.0007291E-24
 -1.1040000E-03    1.0025851E-24
 -1.1035000E-03    1.0050146E-24
 -1.1030000E-03    1.0080000E-24
 -1.1025000E-03    1.0114511E-24
 -1.1020000E-03    1.0151834E-24
 -1.1015000E-03    1.0188970E-24
 -1.1010000E-03    1.0221613E-24
 -1.1005000E-03    1.0244071E-24
 -1.1000000E-03    1.0249317E-24
 -1.0995000E-03    1.0229214E-24
 -1.0990000E-03    1.0174961E-24
 -1.0985000E-03    1.0077803E-24
 -1.0980000E-03    9.9300292E-25
 -1.0975000E-03    9.7262674E-25
 -1.0970000E-03    9.4650549E-25
 -1.0965000E-03    9.1505991E-25
 -1.0960000E-03    8.7946434E-25
 -1.0955000E-03    8.4182404E-25
 -1.0950000E-03    8.0532133E-25
 -1.0945000E-03    7.7430203E-25
 -1.0939999E-03    7.5427004E-25
 -1.0934999E-03    7.5175412E-25
 -1.0930001E-03    7.7401237E-25
 -1.0925001E-03    8.2854465E-25
 -1.0920000E-03    9.2239238E-25
 -1.0915000E-03    1.0612214E-24
 -1.0910000E-03    1.2482025E-24
 -1.0905000E-03    1.4827358E-24
 -1.0900000E-03    1.7590955E-24
 -1.0895000E-03    2.0651081E-24
 -1.0890000E-03    2.3810159E-24
 -1.0885000E-03    2.6787119E-24
 -1.0880000E-03    2.9215576E-24
 -1.0875000E-03    3.0650153E-24
 -1.0870000E-03    3.0583128E-24
 -1.0865000E-03    2.8473372E-24
 -1.0860000E-03    2.3788929E-24
 -1.0855000E-03    1.6063568E-24
 -1.0850000E-03    4.9664651E-25
 -1.0845000E-03   -9.6175940E-25
 -1.0840000E-03   -2.7501979E-24
 -1.0835000E-03   -4.8112611E-24
 -1.0830000E-03   -7.0411729E-24
 -1.0825000E-03   -9.2841884E-24
 -1.0820000E-03   -1.1330234E-23
 -1.0815000E-03   -1.2917106E-23
 -1.0810000E-03   -1.3738499E-23
 -1.0805000E-03   -1.3458985E-23
 -1.0800000E-03   -1.1736723E-23
 -1.0795000E-03   -8.2541546E-24
 -1.0790000E-03   -2.7562881E-24
 -1.0784999E-03    4.9047770E-24
 -1.0779999E-03    1.4721396E-23
 -1.0775001E-03    2.6481445E-23
 -1.0770001E-03    3.9723495E-23
 -1.0765000E-03    5.3701599E-23
 -1.0760000E-03    6.7366165E-23
 -1.0755000E-03    7.9367510E-23
 -1.0750000E-03    8.8088784E-23
 -1.0745000E-03    9.1714105E-23
 -1.0740000E-03    8.8335931E-23
 -1.0735000E-03    7.6103444E-23
 -1.0730000E-03    5.3410162E-23
 -1.0725000E-03    1.9114920E-23
 -1.0720000E-03   -2.7214714E-23
 -1.0715000E-03   -8.5052610E-23
 -1.0710000E-03   -1.5267919E-22
 -1.0705000E-03   -2.2698757E-22
 -1.0700000E-03   -3.0336041E-22
 -1.0695000E-03   -3.7564928E-22
 -1.0690000E-03   -4.3628724E-22
 -1.0685000E-03   -4.7656271E-22
 -1.0680000E-03   -4.8707408E-22
 -1.0675000E-03   -4.5837519E-22
 -1.0670000E-03   -3.8180552E-22
 -1.0665000E-03   -2.5048151E-22
 -1.0660000E-03   -6.0403048E-23
 -1.0655000E-03    1.8839281E-22
 -1.0650000E-03    4.9072197E-22
 -1.0645000E-03    8.3529929E-22
 -1.0640000E-03    1.2040674E-21
 -1.0634999E-03    1.5719452E-21
 -1.0629999E-03    1.9071309E-21
 -1.0625001E-03    2.1720781E-21
 -1.0620001E-03    2.3252396E-21
 -1.0615001E-03    2.3236232E-21
 -1.0610000E-03    2.1261470E-21
 -1.0605000E-03    1.6977072E-21
 -1.0600000E-03    1.0137828E-21
 -1.0595000E-03    6.5310526E-23
 -1.0590000E-03   -1.1365290E-21
 -1.0585000E-03   -2.5560559E-21
 -1.0580000E-03   -4.1298769E-21
 -1.0575000E-03   -5.7652550E-21
 -1.0570000E-03   -7.3406076E-21
 -1.0565000E-03   -8.7086245E-21
 -1.0560000E-03   -9.7023859E-21
 -1.0555000E-03   -1.0144699E-20
 -1.0550000E-03   -9.8606480E-21
 -1.0545000E-03   -8.6930446E-21
 -1.0540000E-03   -6.5201692E-21
 -1.0535000E-03   -3.2748280E-21
 -1.0530000E-03    1.0366109E-21
 -1.0525000E-03    6.3168387E-21
 -1.0520000E-03    1.2363789E-20
 -1.0515000E-03    1.8862427E-20
 -1.0510000E-03    2.5384212E-20
 -1.0505000E-03    3.1396080E-20
 -1.0500000E-03    3.6280478E-20
 -1.0495000E-03    3.9367322E-20
 -1.0490000E-03    3.9977972E-20
 -1.0485000E-03    3.7480258E-20
 -1.0479999E-03    3.1352472E-20
 -1.0474999E-03    2.1252900E-20
 -1.0470001E-03    7.0902457E-21
 -1.0465001E-03   -1.0910828E-20
 -1.0460000E-03   -3.2155851E-20
 -1.0455000E-03   -5.5645577E-20
 -1.0450000E-03   -7.9967285E-20
 -1.0445000E-03   -1.0331905E-19
 -1.0440000E-03   -1.2357236E-19
 -1.0435000E-03   -1.3837651E-19
 -1.0430000E-03   -1.4530526E-19
 -1.0425000E-03   -1.4204252E-19
 -1.0420000E-03   -1.2660045E-19
 -1.0415000E-03   -9.7558082E-20
 -1.0410000E-03   -5.4304963E-20
 -1.0405000E-03    2.7299783E-21
 -1.0400000E-03    7.1886926E-20
 -1.0395000E-03    1.5014591E-19
 -1.0390000E-03    2.3308404E-19
 -1.0385000E-03    3.1494199E-19
 -1.0380000E-03    3.8881785E-19
 -1.0375000E-03    4.4699879E-19
 -1.0370000E-03    4.8143282E-19
 -1.0365000E-03    4.8432909E-19
 -1.0360000E-03    4.4886423E-19
 -1.0355000E-03    3.6995627E-19
 -1.0350000E-03    2.4505339E-19
 -1.0345000E-03    7.4874812E-20
 -1.0340000E-03   -1.3597129E-19
 -1.0335000E-03   -3.7857071E-19
 -1.0329999E-03   -6.3956524E-19
 -1.0324999E-03   -9.0136300E-19
 -1.0319999E-03   -1.1427521E-18
 -1.0315001E-03   -1.3399470E-18
 -1.0310001E-03   -1.4680663E-18
 -1.0305000E-03   -1.5030049E-18
 -1.0300000E-03   -1.4236151E-18
 -1.0295000E-03   -1.2140761E-18
 -1.0290000E-03   -8.6628046E-19
 -1.0285000E-03   -3.8203696E-19
 -1.0280000E-03    2.2513796E-19
 -1.0275000E-03    9.2887916E-19
 -1.0270000E-03    1.6897099E-18
 -1.0265000E-03    2.4558523E-18
 -1.0260000E-03    3.1652560E-18
 -1.0255000E-03    3.7489029E-18
 -1.0250000E-03    4.1353505E-18
 -1.0245000E-03    4.2563600E-18
 -1.0240000E-03    4.0533198E-18
 -1.0235000E-03    3.4840624E-18
 -1.0230000E-03    2.5295423E-18
 -1.0225000E-03    1.1997648E-18
 -1.0220000E-03   -4.6170249E-19
 -1.0215000E-03   -2.3753052E-18
 -1.0210000E-03   -4.4257749E-18
 -1.0205000E-03   -6.4655869E-18
 -1.0200000E-03   -8.3218894E-18
 -1.0195000E-03   -9.8069483E-18
 -1.0190000E-03   -1.0731820E-17
 -1.0185000E-03   -1.0922628E-17
 -1.0180000E-03   -1.0238486E-17
 -1.0174999E-03   -8.5897206E-18
 -1.0169999E-03   -5.9548368E-18
 -1.0165001E-03   -2.3944372E-18
 -1.0160001E-03    1.9397247E-18
 -1.0155000E-03    6.8022763E-18
 -1.0150000E-03    1.1859781E-17
 -1.0145000E-03    1.6705265E-17
 -1.0140000E-03    2.0882047E-17
 -1.0135000E-03    2.3916333E-17
 -1.0130000E-03    2.5357197E-17
 -1.0125000E-03    2.4821583E-17
 -1.0120000E-03    2.2041018E-17
 -1.0115000E-03    1.6906045E-17
 -1.0110000E-03    9.5037394E-18
 -1.0105000E-03    1.4357850E-19
 -1.0100000E-03   -1.0632955E-17
 -1.0095000E-03   -2.2062864E-17
 -1.0090000E-03   -3.3194927E-17
 -1.0085000E-03   -4.2946801E-17
 -1.0080000E-03   -5.0184836E-17
 -1.0075000E-03   -5.3823154E-17
 -1.0070000E-03   -5.2935982E-17
 -1.0065000E-03   -4.6874959E-17
 -1.0060000E-03   -3.5380924E-17
 -1.0055000E-03   -1.8678375E-17
 -1.0050000E-03    2.4598027E-18
 -1.0045000E-03    2.6689189E-17
 -1.0040000E-03    5.2122321E-17
 -1.0035000E-03    7.6415759E-17
 -1.0030000E-03    9.6918277E-17
 -1.0025000E-03    1.1087723E-16
 -1.0019999E-03    1.1569390E-16
 -1.0014999E-03    1.0921198E-16
 -1.0010001E-03    9.0017414E-17
 -1.0005001E-03    5.7721821E-17
 -1.0000000E-03    1.3198792E-17
 -9.9950004E-04   -4.1259719E-17
 -9.9900004E-04   -1.0189758E-16
 -9.9850004E-04   -1.6358557E-16
 -9.9800003E-04   -2.2006694E-16
 -9.9750003E-04   -2.6436367E-16
 -9.9700002E-04   -2.8933478E-16
 -9.9650002E-04   -2.8836186E-16
 -9.9600002E-04   -2.5611926E-16
 -9.9550001E-04   -1.8936991E-16
 -9.9500001E-04   -8.7714087E-17
 -9.9450001E-04    4.5792140E-17
 -9.9400000E-04    2.0423474E-16
 -9.9350000E-04    3.7673839E-16
 -9.9299999E-04    5.4873113E-16
 -9.9249999E-04    7.0262474E-16
 -9.9199999E-04    8.1892702E-16
 -9.9149998E-04    8.7776410E-16
 -9.9099998E-04    8.6074699E-16
 -9.9049998E-04    7.5307058E-16
 -9.8999997E-04    5.4568906E-16
 -9.8949997E-04    2.3737437E-16
 -9.8899996E-04   -1.6356279E-16
 -9.8849996E-04   -6.3812026E-16
 -9.8799996E-04   -1.1562414E-15
 -9.8749995E-04   -1.6774308E-15
 -9.8699995E-04   -2.1524837E-15
 -9.8649994E-04   -2.5263810E-15
 -9.8600006E-04   -2.7423064E-15
 -9.8550005E-04   -2.7466246E-15
 -9.8500005E-04   -2.4945402E-15
 -9.8450005E-04   -1.9560426E-15
 -9.8400004E-04   -1.1216340E-15
 -9.8350004E-04   -7.2699911E-18
 -9.8300003E-04    1.3420973E-15
 -9.8250003E-04    2.8509647E-15
 -9.8200003E-04    4.4142351E-15
 -9.8150002E-04    5.9010672E-15
 -9.8100002E-04    7.1618135E-15
 -9.8050002E-04    8.0379869E-15
 -9.8000001E-04    8.3749095E-15
 -9.7950001E-04    8.0363903E-15
 -9.7900000E-04    6.9204815E-15
 -9.7850000E-04    4.9750713E-15
 -9.7800000E-04    2.2118868E-15
 -9.7749999E-04   -1.2826516E-15
 -9.7699999E-04   -5.3412623E-15
 -9.7649998E-04   -9.7157271E-15
 -9.7599998E-04   -1.4084004E-14
 -9.7549998E-04   -1.8065175E-14
 -9.7499997E-04   -2.1242285E-14
 -9.7450003E-04   -2.3192446E-14
 -9.7400002E-04   -2.3522800E-14
 -9.7350002E-04   -2.1910188E-14
 -9.7300002E-04   -1.8141660E-14
 -9.7250001E-04   -1.2152418E-14
 -9.7200001E-04   -4.0573636E-15
 -9.7150001E-04    5.8275439E-15
 -9.7100000E-04    1.6977798E-14
 -9.7050000E-04    2.8669690E-14
 -9.6999999E-04    4.0008497E-14
 -9.6949999E-04    4.9976275E-14
 -9.6899999E-04    5.7498270E-14
 -9.6849998E-04    6.1525370E-14
 -9.6799998E-04    6.1127962E-14
 -9.6749997E-04    5.5595116E-14
 -9.6700003E-04    4.4531168E-14
 -9.6650003E-04    2.7941125E-14
 -9.6600002E-04    6.2956071E-15
 -9.6550002E-04   -1.9433465E-14
 -9.6500001E-04   -4.7774237E-14
 -9.6450001E-04   -7.6799061E-14
 -9.6400001E-04   -1.0421443E-13
 -9.6350000E-04   -1.2749613E-13
 -9.6300000E-04   -1.4406521E-13
 -9.6249999E-04   -1.5149594E-13
 -9.6199999E-04   -1.4774320E-13
 -9.6149999E-04   -1.3137261E-13
 -9.6099998E-04   -1.0177464E-13
 -9.6049998E-04   -5.9341651E-14
 -9.5999998E-04   -5.5875977E-15
 -9.5949997E-04    5.6808477E-14
 -9.5900003E-04    1.2405032E-13
 -9.5850002E-04    1.9137316E-13
 -9.5800002E-04    2.5329549E-13
 -9.5750001E-04    3.0396795E-13
 -9.5700001E-04    3.3760429E-13
 -9.5650001E-04    3.4896952E-13
 -9.5600000E-04    3.3389307E-13
 -9.5550000E-04    2.8976734E-13
 -9.5500000E-04    2.1598718E-13
 -9.5449999E-04    1.1428604E-13
 -9.5399999E-04   -1.1074922E-14
 -9.5349998E-04   -1.5330062E-13
 -9.5299998E-04   -3.0326506E-13
 -9.5249998E-04   -4.4993580E-13
 -9.5199997E-04   -5.8101489E-13
 -9.5150003E-04   -6.8377270E-13
 -9.5100002E-04   -7.4603198E-13
 -9.5050002E-04   -7.5723987E-13
 -9.5000002E-04   -7.0955172E-13
 -9.4950001E-04   -5.9883766E-13
 -9.4900001E-04   -4.2551853E-13
 -9.4850000E-04   -1.9513853E-13
 -9.4800000E-04    8.1406744E-14
 -9.4750000E-04    3.8805160E-13
 -9.4699999E-04    7.0418947E-13
 -9.4649999E-04    1.0057559E-12
 -9.4599999E-04    1.2667351E-12
 -9.4549998E-04    1.4610201E-12
 -9.4499998E-04    1.5645186E-12
 -9.4449997E-04    1.5573622E-12
 -9.4400003E-04    1.4260508E-12
 -9.4350002E-04    1.1653479E-12
 -9.4300002E-04    7.7973977E-13
 -9.4250002E-04    2.8428543E-13
 -9.4200001E-04   -2.9528897E-13
 -9.4150001E-04   -9.2334950E-13
 -9.4100001E-04   -1.5560119E-12
 -9.4050000E-04   -2.1436685E-12
 -9.4000000E-04   -2.6342845E-12
 -9.3949999E-04   -2.9772881E-12
 -9.3899999E-04   -3.1278036E-12
 -9.3849999E-04   -3.0509284E-12
 -9.3799998E-04   -2.7257105E-12
 -9.3749998E-04   -2.1484624E-12
 -9.3699998E-04   -1.3350739E-12
 -9.3649997E-04   -3.2201534E-13
 -9.3600003E-04    8.3420131E-13
 -9.3550002E-04    2.0592319E-12
 -9.3500002E-04    3.2647919E-12
 -9.3450001E-04    4.3541065E-12
 -9.3400001E-04    5.2286517E-12
 -9.3350001E-04    5.7957862E-12
 -9.3300000E-04    5.9767564E-12
 -9.3250000E-04    5.7144706E-12
 -9.3200000E-04    4.9803967E-12
 -9.3149999E-04    3.7799226E-12
 -9.3099999E-04    2.1555988E-12
 -9.3049998E-04    1.8776543E-13
 -9.2999998E-04   -2.0077566E-12
 -9.2949998E-04   -4.2850354E-12
 -9.2899997E-04   -6.4763472E-12
 -9.2850003E-04   -8.4030855E-12
 -9.2800002E-04   -9.8886559E-12
 -9.2750002E-04   -1.0772530E-11
 -9.2700002E-04   -1.0924455E-11
 -9.2650001E-04   -1.0257703E-11
 -9.2600001E-04   -8.7402134E-12
 -9.2550000E-04   -6.4025382E-12
 -9.2500000E-04   -3.3416432E-12
 -9.2450000E-04    2.8013822E-13
 -9.2399999E-04    4.2413759E-12
 -9.2349999E-04    8.2730420E-12
 -9.2299999E-04    1.2074826E-11
 -9.2249998E-04    1.5335427E-11
 -9.2199998E-04    1.7755590E-11
 -9.2149997E-04    1.9072327E-11
 -9.2100003E-04    1.9082525E-11
 -9.2050002E-04    1.7664042E-11
 -9.2000002E-04    1.4792395E-11
 -9.1950002E-04    1.0551351E-11
 -9.1900001E-04    5.1360882E-12
 -9.1850001E-04   -1.1520132E-12
 -9.1800001E-04   -7.9192044E-12
 -9.1750000E-04   -1.4701504E-11
 -9.1700000E-04   -2.0994092E-11
 -9.1649999E-04   -2.6286280E-11
 -9.1599999E-04   -3.0099798E-11
 -9.1549999E-04   -3.2027662E-11
 -9.1499998E-04   -3.1770735E-11
 -9.1449998E-04   -2.9168879E-11
 -9.1399997E-04   -2.4223951E-11
 -9.1349997E-04   -1.7112207E-11
 -9.1300003E-04   -8.1844045E-12
 -9.1250002E-04    2.0473499E-12
 -9.1200002E-04    1.2935931E-11
 -9.1150001E-04    2.3737632E-11
 -9.1100001E-04    3.3660619E-11
 -9.1050001E-04    4.1920391E-11
 -9.1000000E-04    4.7798463E-11
 -9.0950000E-04    5.0700076E-11
 -9.0899999E-04    5.0206422E-11
 -9.0849999E-04    4.6117089E-11
 -9.0799999E-04    3.8478939E-11
 -9.0749998E-04    2.7598342E-11
 -9.0699998E-04    1.4034901E-11
 -9.0649998E-04   -1.4239458E-12
 -9.0599997E-04   -1.7806624E-11
 -9.0550003E-04   -3.4017161E-11
 -9.0500002E-04   -4.8907323E-11
 -9.0450002E-04   -6.1356448E-11
 -9.0400001E-04   -7.0353376E-11
 -9.0350001E-04   -7.5074474E-11
 -9.0300001E-04   -7.4951899E-11
 -9.0250000E-04   -6.9726419E-11
 -9.0200000E-04   -5.9480483E-11
 -9.0150000E-04   -4.4648011E-11
 -9.0099999E-04   -2.5999590E-11
 -9.0049999E-04   -4.6029808E-12
 -8.9999998E-04    1.8238877E-11
 -8.9949998E-04    4.1068662E-11
 -8.9899998E-04    6.2368971E-11
 -8.9849997E-04    8.0663753E-11
 -8.9800003E-04    9.4619729E-11
 -8.9750002E-04    1.0314063E-10
 -8.9700002E-04    1.0544745E-10
 -8.9650002E-04    1.0113865E-10
 -8.9600001E-04    9.0226250E-11
 -8.9550001E-04    7.3144525E-11
 -8.9500000E-04    5.0731037E-11
 -8.9450000E-04    2.4180918E-11
 -8.9400000E-04   -5.0222903E-12
 -8.9349999E-04   -3.5194500E-11
 -8.9299999E-04   -6.4551621E-11
 -8.9249999E-04   -9.1315962E-11
 -8.9199998E-04   -1.1382152E-10
 -8.9149998E-04   -1.3061155E-10
 -8.9099997E-04   -1.4052250E-10
 -8.9050003E-04   -1.4274987E-10
 -8.9000002E-04   -1.3689293E-10
 -8.8950002E-04   -1.2297674E-10
 -8.8900002E-04   -1.0145195E-10
 -8.8850001E-04   -7.3173696E-11
 -8.8800001E-04   -3.9362513E-11
 -8.8750001E-04   -1.5505866E-12
 -8.8700000E-04    3.8483113E-11
 -8.8650000E-04    7.8785180E-11
 -8.8599999E-04    1.1730479E-10
 -8.8549999E-04    1.5197310E-10
 -8.8499999E-04    1.8078368E-10
 -8.8449998E-04    2.0187334E-10
 -8.8399998E-04    2.1360311E-10
 -8.8349998E-04    2.1463929E-10
 -8.8299997E-04    2.0403410E-10
 -8.8250003E-04    1.8130471E-10
 -8.8200002E-04    1.4650768E-10
 -8.8150002E-04    1.0030504E-10
 -8.8100001E-04    4.4015704E-11
 -8.8050001E-04   -2.0354685E-11
 -8.8000001E-04   -9.0114277E-11
 -8.7950000E-04   -1.6192413E-10
 -8.7900000E-04   -2.3188385E-10
 -8.7850000E-04   -2.9566963E-10
 -8.7799999E-04   -3.4872752E-10
 -8.7749999E-04   -3.8651965E-10
 -8.7699998E-04   -4.0481737E-10
 -8.7649998E-04   -4.0002776E-10
 -8.7599998E-04   -3.6953499E-10
 -8.7549997E-04   -3.1203243E-10
 -8.7500003E-04   -2.2781757E-10
 -8.7450002E-04   -1.1901864E-10
 -8.7400002E-04    1.0277215E-11
 -8.7350002E-04    1.5402178E-10
 -8.7300001E-04    3.0435121E-10
 -8.7250001E-04    4.5189213E-10
 -8.7200000E-04    5.8622862E-10
 -8.7150000E-04    6.9651884E-10
 -8.7100000E-04    7.7223322E-10
 -8.7049999E-04    8.0397417E-10
 -8.6999999E-04    7.8432127E-10
 -8.6949999E-04    7.0864020E-10
 -8.6899998E-04    5.7578292E-10
 -8.6849998E-04    3.8860976E-10
 -8.6799997E-04    1.5426767E-10
 -8.6750003E-04   -1.1582903E-10
 -8.6700002E-04   -4.0635187E-10
 -8.6650002E-04   -6.9875711E-10
 -8.6600002E-04   -9.7231767E-10
 -8.6550001E-04   -1.2054435E-09
 -8.6500001E-04   -1.3772193E-09
 -8.6450001E-04   -1.4690605E-09
 -8.6400000E-04   -1.4663694E-09
 -8.6350000E-04   -1.3600572E-09
 -8.6299999E-04   -1.1477986E-09
 -8.6249999E-04   -8.3488849E-10
 -8.6199999E-04   -4.3459072E-10
 -8.6149998E-04    3.2097793E-11
 -8.6099998E-04    5.3730981E-10
 -8.6049997E-04    1.0477890E-09
 -8.5999997E-04    1.5269302E-09
 -8.5950003E-04    1.9372697E-09
 -8.5900002E-04    2.2432667E-09
 -8.5850002E-04    2.4141837E-09
 -8.5800001E-04    2.4268392E-09
 -8.5750001E-04    2.2680078E-09
 -8.5700001E-04    1.9362394E-09
 -8.5650000E-04    1.4429077E-09
 -8.5600000E-04    8.1233670E-10
 -8.5549999E-04    8.0921984E-11
 -8.5499999E-04   -7.0476458E-10
 -8.5449999E-04   -1.4908138E-09
 -8.5399998E-04   -2.2196074E-09
 -8.5349998E-04   -2.8340021E-09
 -8.5299998E-04   -3.2817762E-09
 -8.5249997E-04   -3.5199956E-09
 -8.5200003E-04   -3.5189460E-09
 -8.5150002E-04   -3.2652787E-09
 -8.5100002E-04   -2.7640612E-09
 -8.5050002E-04   -2.0394928E-09
 -8.5000001E-04   -1.1341386E-09
 -8.4950001E-04   -1.0664424E-10
 -8.4900000E-04    9.7197450E-10
 -8.4850000E-04    2.0232596E-09
 -8.4800000E-04    2.9671203E-09
 -8.4749999E-04    3.7281058E-09
 -8.4699999E-04    4.2416439E-09
 -8.4649998E-04    4.4597308E-09
 -8.4599998E-04    4.3555684E-09
 -8.4549998E-04    3.9266919E-09
 -8.4499997E-04    3.1962555E-09
 -8.4450003E-04    2.2122484E-09
 -8.4400002E-04    1.0446097E-09
 -8.4350002E-04   -2.1964189E-10
 -8.4300002E-04   -1.4829430E-09
 -8.4250001E-04   -2.6449218E-09
 -8.4200001E-04   -3.6107308E-09
 -8.4150000E-04   -4.2992849E-09
 -8.4100000E-04   -4.6506869E-09
 -8.4050000E-04   -4.6321427E-09
 -8.3999999E-04   -4.2417714E-09
 -8.3949999E-04   -3.5098593E-09
 -8.3899999E-04   -2.4973110E-09
 -8.3849998E-04   -1.2912877E-09
 -8.3799998E-04    1.7266414E-12
 -8.3749997E-04    1.2649474E-09
 -8.3700003E-04    2.3816882E-09
 -8.3650002E-04    3.2462646E-09
 -8.3600002E-04    3.7744270E-09
 -8.3550002E-04    3.9123260E-09
 -8.3500001E-04    3.6430867E-09
 -8.3450001E-04    2.9902290E-09
 -8.3400001E-04    2.0174074E-09
 -8.3350000E-04    8.2425750E-10
 -8.3300000E-04   -4.6152251E-10
 -8.3249999E-04   -1.6953617E-09
 -8.3199999E-04   -2.7294451E-09
 -8.3149999E-04   -3.4276522E-09
 -8.3099998E-04   -3.6804768E-09
 -8.3049998E-04   -3.4184895E-09
 -8.2999998E-04   -2.6229343E-09
 -8.2949997E-04   -1.3322025E-09
 -8.2900003E-04    3.5678407E-10
 -8.2850002E-04    2.2928541E-09
 -8.2800002E-04    4.2806203E-09
 -8.2750001E-04    6.0958256E-09
 -8.2700001E-04    7.5050259E-09
 -8.2650001E-04    8.2881355E-09
 -8.2600000E-04    8.2619884E-09
 -8.2550000E-04    7.3027571E-09
 -8.2500000E-04    5.3650546E-09
 -8.2449999E-04    2.4955735E-09
 -8.2399999E-04   -1.1605307E-09
 -8.2349998E-04   -5.3618217E-09
 -8.2299998E-04   -9.7819903E-09
 -8.2249998E-04   -1.4030366E-08
 -8.2199997E-04   -1.7680579E-08
 -8.2150003E-04   -2.0305599E-08
 -8.2100002E-04   -2.1516639E-08
 -8.2050002E-04   -2.1002826E-08
 -8.2000002E-04   -1.8568191E-08
 -8.1950001E-04   -1.4162445E-08
 -8.1900001E-04   -7.9021873E-09
 -8.1850000E-04   -7.9769233E-11
 -8.1800000E-04    8.8421954E-09
 -8.1750000E-04    1.8251605E-08
 -8.1699999E-04    2.7422630E-08
 -8.1649999E-04    3.5564874E-08
 -8.1599999E-04    4.1883002E-08
 -8.1549998E-04    4.5642818E-08
 -8.1499998E-04    4.6238846E-08
 -8.1449997E-04    4.3257842E-08
 -8.1400003E-04    3.6532583E-08
 -8.1350002E-04    2.6180604E-08
 -8.1300002E-04    1.2623223E-08
 -8.1250002E-04   -3.4184051E-09
 -8.1200001E-04   -2.0952021E-08
 -8.1150001E-04   -3.8767560E-08
 -8.1100001E-04   -5.5512913E-08
 -8.1050000E-04   -6.9787895E-08
 -8.1000000E-04   -8.0250473E-08
 -8.0949999E-04   -8.5727699E-08
 -8.0899999E-04   -8.5322966E-08
 -8.0849999E-04   -7.8510588E-08
 -8.0799998E-04   -6.5209399E-08
 -8.0749998E-04   -4.5827505E-08
 -8.0699997E-04   -2.1272722E-08
 -8.0649997E-04    7.0750854E-09
 -8.0600003E-04    3.7430468E-08
 -8.0550002E-04    6.7705479E-08
 -8.0500002E-04    9.5644147E-08
 -8.0450001E-04    1.1898031E-07
 -8.0400001E-04    1.3560827E-07
 -8.0350001E-04    1.4375421E-07
 -8.0300000E-04    1.4213501E-07
 -8.0250000E-04    1.3009175E-07
 -8.0200000E-04    1.0768569E-07
 -8.0149999E-04    7.5746854E-08
 -8.0099999E-04    3.5868414E-08
 -8.0049998E-04   -9.6564516E-09
 -7.9999998E-04   -5.7954317E-08
 -7.9949998E-04   -1.0574248E-07
 -7.9899997E-04   -1.4954176E-07
 -7.9850003E-04   -1.8591787E-07
 -7.9800002E-04   -2.1173511E-07
 -7.9750002E-04   -2.2440435E-07
 -7.9700002E-04   -2.2210671E-07
 -7.9650001E-04   -2.0397481E-07
 -7.9600001E-04   -1.7021580E-07
 -7.9550000E-04   -1.2216391E-07
 -7.9500000E-04   -6.2254514E-08
 -7.9450000E-04    6.0827556E-09
 -7.9399999E-04    7.8608579E-08
 -7.9349999E-04    1.5052689E-07
 -7.9299998E-04    2.1679180E-07
 -7.9249998E-04    2.7244909E-07
 -7.9199998E-04    3.1298944E-07
 -7.9149997E-04    3.3468930E-07
 -7.9100003E-04    3.3491369E-07
 -7.9050002E-04    3.1235837E-07
 -7.9000002E-04    2.6721079E-07
 -7.8950002E-04    2.0121550E-07
 -7.8900001E-04    1.1763395E-07
 -7.8850001E-04    2.1097920E-08
 -7.8800000E-04   -8.2638330E-08
 -7.8750000E-04   -1.8703443E-07
 -7.8700000E-04   -2.8516891E-07
 -7.8649999E-04   -3.7018771E-07
 -7.8599999E-04   -4.3576765E-07
 -7.8549999E-04   -4.7656320E-07
 -7.8499998E-04   -4.8860608E-07
 -7.8449998E-04   -4.6962862E-07
 -7.8399997E-04   -4.1928669E-07
 -7.8350003E-04   -3.3926366E-07
 -7.8300002E-04   -2.3324465E-07
 -7.8250002E-04   -1.0675833E-07
 -7.8200002E-04    3.3106975E-08
 -7.8150001E-04    1.7809853E-07
 -7.8100001E-04    3.1928312E-07
 -7.8050001E-04    4.4759059E-07
 -7.8000000E-04    5.5438409E-07
 -7.7950000E-04    6.3202054E-07
 -7.7899999E-04    6.7436605E-07
 -7.7849999E-04    6.7723232E-07
 -7.7799999E-04    6.3870459E-07
 -7.7749998E-04    5.5933833E-07
 -7.7699998E-04    4.4220977E-07
 -7.7649998E-04    2.9281333E-07
 -7.7599997E-04    1.1881001E-07
 -7.7550003E-04   -7.0362262E-08
 -7.7500002E-04   -2.6399502E-07
 -7.7450002E-04   -4.5070490E-07
 -7.7400001E-04   -6.1908486E-07
 -7.7350001E-04   -7.5837511E-07
 -7.7300001E-04   -8.5911319E-07
 -7.7250000E-04   -9.1372874E-07
 -7.7200000E-04   -9.1704476E-07
 -7.7150000E-04   -8.6665835E-07
 -7.7099999E-04   -7.6317480E-07
 -7.7049999E-04   -6.1028089E-07
 -7.6999998E-04   -4.1464904E-07
 -7.6949998E-04   -1.8567296E-07
 -7.6899998E-04    6.4953866E-08
 -7.6849997E-04    3.2380026E-07
 -7.6800003E-04    5.7637322E-07
 -7.6750002E-04    8.0787646E-07
 -7.6700002E-04    1.0040147E-06
 -7.6650002E-04    1.1518046E-06
 -7.6600001E-04    1.2403493E-06
 -7.6550001E-04    1.2615388E-06
 -7.6500000E-04    1.2106329E-06
 -7.6450000E-04    1.0866956E-06
 -7.6400000E-04    8.9284862E-07
 -7.6349999E-04    6.3632319E-07
 -7.6299999E-04    3.2829496E-07
 -7.6249999E-04   -1.6502161E-08
 -7.6199998E-04   -3.8037680E-07
 -7.6149998E-04   -7.4347918E-07
 -7.6099997E-04   -1.0847696E-06
 -7.6050003E-04   -1.3831179E-06
 -7.6000002E-04   -1.6184841E-06
 -7.5950002E-04   -1.7731237E-06
 -7.5900002E-04   -1.8327530E-06
 -7.5850001E-04   -1.7876089E-06
 -7.5800001E-04   -1.6333325E-06
 -7.5750001E-04   -1.3716157E-06
 -7.5700000E-04   -1.0105508E-06
 -7.5650000E-04   -5.6463995E-07
 -7.5599999E-04   -5.4431858E-08
 -7.5549999E-04    4.9422351E-07
 -7.5499999E-04    1.0512938E-06
 -7.5449998E-04    1.5840227E-06
 -7.5399998E-04    2.0586720E-06
 -7.5349997E-04    2.4424646E-06
 -7.5299997E-04    2.7056337E-06
 -7.5250003E-04    2.8234579E-06
 -7.5200002E-04    2.7781555E-06
 -7.5150002E-04    2.5605159E-06
 -7.5100001E-04    2.1711332E-06
 -7.5050001E-04    1.6211403E-06
 -7.5000001E-04    9.3234712E-07
 -7.4950000E-04    1.3672661E-07
 -7.4900000E-04   -7.2477411E-07
 -7.4850000E-04   -1.6040821E-06
 -7.4799999E-04   -2.4484400E-06
 -7.4749999E-04   -3.2033395E-06
 -7.4699998E-04   -3.8157932E-06
 -7.4649998E-04   -4.2377678E-06
 -7.4599998E-04   -4.4295689E-06