 -1.2000001E-03    1.0000000E-24
 -1.1995001E-03    1.0000000E-24
 -1.1990000E-03    1.0000000E-24
 -1.1985000E-03    1.0000000E-24
 -1.1980000E-03    1.0000000E-24
 -1.1975000E-03    1.0000000E-24
 -1.1970000E-03    1.0000000E-24
 -1.1965000E-03    1.0000000E-24
 -1.1960000E-03    1.0000001E-24
 -1.1955000E-03    1.0000001E-24
 -1.1950000E-03    1.0000001E-24
 -1.1945000E-03    1.0000001E-24
 -1.1940000E-03    1.0000001E-24
 -1.1935000E-03    1.0000001E-24
 -1.1930000E-03    1.0000001E-24
 -1.1925000E-03    1.0000001E-24
 -1.1920000E-03    1.0000001E-24
 -1.1915000E-03    1.0000001E-24
 -1.1910000E-03    1.0000001E-24
 -1.1905000E-03    1.0000001E-24
 -1.1900000E-03    1.0000001E-24
 -1.1895000E-03    1.0000001E-24
 -1.1890000E-03    1.0000001E-24
 -1.1885000E-03    1.0000001E-24
 -1.1880000E-03    1.0000001E-24
 -1.1875000E-03    1.0000001E-24
 -1.1870000E-03    1.0000002E-24
 -1.1865000E-03    1.0000002E-24
 -1.1860000E-03    1.0000002E-24
 -1.1854999E-03    1.0000002E-24
 -1.1849999E-03    1.0000002E-24
 -1.1845001E-03    1.0000002E-24
 -1.1840001E-03    1.0000002E-24
 -1.1835000E-03    1.0000002E-24
 -1.1830000E-03    1.0000002E-24
 -1.1825000E-03    1.0000002E-24
 -1.1820000E-03    1.0000002E-24
 -1.1815000E-03    1.0000001E-24
 -1.1810000E-03    1.0000001E-24
 -1.1805000E-03    1.0000001E-24
 -1.1800000E-03    1.0000001E-24
 -1.1795000E-03    1.0000001E-24
 -1.1790000E-03    1.0000001E-24
 -1.1785000E-03    1.0000001E-24
 -1.1780000E-03    1.0000001E-24
 -1.1775000E-03    1.0000001E-24
 -1.1770000E-03    1.0000001E-24
 -1.1765000E-03    1.0000001E-24
 -1.1760000E-03    1.0000001E-24
 -1.1755000E-03    1.0000001E-24
 -1.1750000E-03    1.0000001E-24
 -1.1745000E-03    1.0000001E-24
 -1.1740000E-03    1.0000001E-24
 -1.1735000E-03    1.0000001E-24
 -1.1730000E-03    1.0000001E-24
 -1.1725000E-03    1.0000001E-24
 -1.1720000E-03    1.0000001E-24
 -1.1715000E-03    1.0000001E-24
 -1.1710000E-03    1.0000001E-24
 -1.1704999E-03    1.0000001E-24
 -1.1699999E-03    1.0000001E-24
 -1.1695001E-03    1.0000001E-24
 -1.1690001E-03    1.0000001E-24
 -1.1685000E-03    1.0000001E-24
 -1.1680000E-03    1.0000001E-24
 -1.1675000E-03    1.0000001E-24
 -1.1670000E-03    1.0000001E-24
 -1.1665000E-03    1.0000001E-24
 -1.1660000E-03    1.0000001E-24
 -1.1655000E-03    1.0000001E-24
 -1.1650000E-03    1.0000001E-24
 -1.1645000E-03    1.0000001E-24
 -1.1640000E-03    1.0000001E-24
 -1.1635000E-03    1.0000001E-24
 -1.1630000E-03    1.0000001E-24
 -1.1625000E-03    1.0000001E-24
 -1.1620000E-03    1.0000001E-24
 -1.1615000E-03    1.0000001E-24
 -1.1610000E-03    1.0000002E-24
 -1.1605000E-03    1.0000003E-24
 -1.1600000E-03    1.0000003E-24
 -1.1595000E-03    1.0000003E-24
 -1.1590000E-03    1.0000003E-24
 -1.1585000E-03    1.0000003E-24
 -1.1580000E-03    1.0000003E-24
 -1.1575000E-03    1.0000003E-24
 -1.1570000E-03    1.0000003E-24
 -1.1565000E-03    1.0000003E-24
 -1.1560000E-03    1.0000003E-24
 -1.1555000E-03    1.0000003E-24
 -1.1549999E-03    1.0000003E-24
 -1.1544999E-03    1.0000003E-24
 -1.1540001E-03    1.0000002E-24
 -1.1535001E-03    1.0000001E-24
 -1.1530000E-03    1.0000000E-24
 -1.1525000E-03    1.0000000E-24
 -1.1520000E-03    1.0000000E-24
 -1.1515000E-03    1.0000000E-24
 -1.1510000E-03    1.0000000E-24
 -1.1505000E-03    1.0000000E-24
 -1.1500000E-03    1.0000000E-24
 -1.1495000E-03    1.0000000E-24
 -1.1490000E-03    1.0000000E-24
 -1.1485000E-03    1.0000000E-24
 -1.1480000E-03    1.0000000E-24
 -1.1475000E-03    1.0000000E-24
 -1.1470000E-03    1.0000000E-24
 -1.1465000E-03    1.0000000E-24
 -1.1460000E-03    1.0000000E-24
 -1.1455000E-03    1.0000000E-24
 -1.1450000E-03    1.0000000E-24
 -1.1445000E-03    1.0000000E-24
 -1.1440000E-03    1.0000000E-24
 -1.1435000E-03    1.0000000E-24
 -1.1430000E-03    1.0000000E-24
 -1.1425000E-03    1.0000000E-24
 -1.1420000E-03    1.0000000E-24
 -1.1415000E-03    1.0000000E-24
 -1.1410000E-03    1.0000000E-24
 -1.1405000E-03    1.0000000E-24
 -1.1399999E-03    1.0000000E-24
 -1.1394999E-03    1.0000000E-24
 -1.1390001E-03    1.0000000E-24
 -1.1385001E-03    1.0000001E-24
 -1.1380001E-03    1.0000002E-24
 -1.1375000E-03    1.0000003E-24
 -1.1370000E-03    1.0000004E-24
 -1.1365000E-03    1.0000005E-24
 -1.1360000E-03    1.0000005E-24
 -1.1355000E-03    1.0000005E-24
 -1.1350000E-03    1.0000005E-24
 -1.1345000E-03    1.0000005E-24
 -1.1340000E-03    1.0000005E-24
 -1.1335000E-03    1.0000005E-24
 -1.1330000E-03    1.0000005E-24
 -1.1325000E-03    1.0000005E-24
 -1.1320000E-03    1.0000005E-24
 -1.1315000E-03    1.0000004E-24
 -1.1310000E-03    1.0000003E-24
 -1.1305000E-03    1.0000002E-24
 -1.1300000E-03    1.0000001E-24
 -1.1295000E-03    1.0000001E-24
 -1.1290000E-03    1.0000001E-24
 -1.1285000E-03    1.0000001E-24
 -1.1280000E-03    1.0000001E-24
 -1.1275000E-03    1.0000001E-24
 -1.1270000E-03    1.0000001E-24
 -1.1265000E-03    1.0000001E-24
 -1.1260000E-03    1.0000001E-24
 -1.1255000E-03    1.0000001E-24
 -1.1250000E-03    1.0000001E-24
 -1.1244999E-03    1.0000001E-24
 -1.1239999E-03    1.0000001E-24
 -1.1235001E-03    1.0000001E-24
 -1.1230001E-03    1.0000001E-24
 -1.1225000E-03    1.0000001E-24
 -1.1220000E-03    1.0000001E-24
 -1.1215000E-03    1.0000001E-24
 -1.1210000E-03    1.0000001E-24
 -1.1205000E-03    1.0000001E-24
 -1.1200000E-03    1.0000001E-24
 -1.1195000E-03    1.0000001E-24
 -1.1190000E-03    1.0000001E-24
 -1.1185000E-03    1.0000001E-24
 -1.1180000E-03    1.0000001E-24
 -1.1175000E-03    1.0000000E-24
 -1.1170000E-03    9.9999992E-25
 -1.1165000E-03    9.9999992E-25
 -1.1160000E-03    9.9999992E-25
 -1.1155000E-03    9.9999992E-25
 -1.1150000E-03    9.9999992E-25
 -1.1145000E-03    9.9999992E-25
 -1.1140000E-03    9.9999992E-25
 -1.1135000E-03    9.9999992E-25
 -1.1130000E-03    9.9999992E-25
 -1.1125000E-03    1.0000000E-24
 -1.1120000E-03    1.0000001E-24
 -1.1115000E-03    1.0000002E-24
 -1.1110000E-03    1.0000004E-24
 -1.1105000E-03    1.0000006E-24
 -1.1100000E-03    1.0000008E-24
 -1.1094999E-03    1.0000010E-24
 -1.1089999E-03    1.0000012E-24
 -1.1084999E-03    1.0000013E-24
 -1.1080001E-03    1.0000014E-24
 -1.1075001E-03    1.0000014E-24
 -1.1070000E-03    1.0000013E-24
 -1.1065000E-03    1.0000011E-24
 -1.1060000E-03    1.0000009E-24
 -1.1055000E-03    1.0000006E-24
 -1.1050000E-03    1.0000003E-24
 -1.1045000E-03    1.0000000E-24
 -1.1040000E-03    9.9999963E-25
 -1.1035000E-03    9.9999933E-25
 -1.1030000E-03    9.9999903E-25
 -1.1025000E-03    9.9999874E-25
 -1.1020000E-03    9.9999854E-25
 -1.1015000E-03    9.9999844E-25
 -1.1010000E-03    9.9999834E-25
 -1.1005000E-03    9.9999834E-25
 -1.1000000E-03    9.9999844E-25
 -1.0995000E-03    9.9999864E-25
 -1.0990000E-03    9.9999884E-25
 -1.0985000E-03    9.9999913E-25
 -1.0980000E-03    9.9999943E-25
 -1.0975000E-03    9.9999972E-25
 -1.0970000E-03    1.0000000E-24
 -1.0965000E-03    1.0000003E-24
 -1.0960000E-03    1.0000006E-24
 -1.0955000E-03    1.0000008E-24
 -1.0950000E-03    1.0000010E-24
 -1.0945000E-03    1.0000012E-24
 -1.0939999E-03    1.0000013E-24
 -1.0934999E-03    1.0000014E-24
 -1.0930001E-03    1.0000014E-24
 -1.0925001E-03    1.0000014E-24
 -1.0920000E-03    1.0000013E-24
 -1.0915000E-03    1.0000012E-24
 -1.0910000E-03    1.0000010E-24
 -1.0905000E-03    1.0000009E-24
 -1.0900000E-03    1.0000009E-24
 -1.0895000E-03    1.0000009E-24
 -1.0890000E-03    1.0000012E-24
 -1.0885000E-03    1.0000014E-24
 -1.0880000E-03    1.0000016E-24
 -1.0875000E-03    1.0000016E-24
 -1.0870000E-03    1.0000017E-24
 -1.0865000E-03    1.0000017E-24
 -1.0860000E-03    1.0000019E-24
 -1.0855000E-03    1.0000025E-24
 -1.0850000E-03    1.0000037E-24
 -1.0845000E-03    1.0000050E-24
 -1.0840000E-03    1.0000072E-24
 -1.0835000E-03    1.0000090E-24
 -1.0830000E-03    1.0000120E-24
 -1.0825000E-03    1.0000146E-24
 -1.0820000E-03    1.0000166E-24
 -1.0815000E-03    1.0000185E-24
 -1.0810000E-03    1.0000177E-24
 -1.0805000E-03    1.0000149E-24
 -1.0800000E-03    1.0000133E-24
 -1.0795000E-03    1.0000106E-24
 -1.0790000E-03    1.0000054E-24
 -1.0784999E-03    9.9999716E-25
 -1.0779999E-03    9.9998809E-25
 -1.0775001E-03    9.9997547E-25
 -1.0770001E-03    9.9996097E-25
 -1.0765000E-03    9.9994480E-25
 -1.0760000E-03    9.9992350E-25
 -1.0755000E-03    9.9990496E-25
 -1.0750000E-03    9.9989451E-25
 -1.0745000E-03    9.9989106E-25
 -1.0740000E-03    9.9990585E-25
 -1.0735000E-03    9.9994135E-25
 -1.0730000E-03    9.9999272E-25
 -1.0725000E-03    1.0000540E-24
 -1.0720000E-03    1.0001340E-24
 -1.0715000E-03    1.0002593E-24
 -1.0710000E-03    1.0003816E-24
 -1.0705000E-03    1.0004899E-24
 -1.0700000E-03    1.0005549E-24
 -1.0695000E-03    1.0005596E-24
 -1.0690000E-03    1.0006058E-24
 -1.0685000E-03    1.0006237E-24
 -1.0680000E-03    1.0006077E-24
 -1.0675000E-03    1.0005541E-24
 -1.0670000E-03    1.0004794E-24
 -1.0665000E-03    1.0003199E-24
 -1.0660000E-03    1.0000400E-24
 -1.0655000E-03    9.9965460E-25
 -1.0650000E-03    9.9916757E-25
 -1.0645000E-03    9.9883497E-25
 -1.0640000E-03    9.9859269E-25
 -1.0634999E-03    9.9843324E-25
 -1.0629999E-03    9.9836412E-25
 -1.0625001E-03    9.9843048E-25
 -1.0620001E-03    9.9853816E-25
 -1.0615001E-03    9.9870619E-25
 -1.0610000E-03    9.9902479E-25
 -1.0605000E-03    9.9941685E-25
 -1.0600000E-03    9.9997833E-25
 -1.0595000E-03    1.0003967E-24
 -1.0590000E-03    1.0010259E-24
 -1.0585000E-03    1.0017606E-24
 -1.0580000E-03    1.0025104E-24
 -1.0575000E-03    1.0031697E-24
 -1.0570000E-03    1.0038591E-24
 -1.0565000E-03    1.0050003E-24
 -1.0560000E-03    1.0056898E-24
 -1.0555000E-03    1.0070720E-24
 -1.0550000E-03    1.0077087E-24
 -1.0545000E-03    1.0085946E-24
 -1.0540000E-03    1.0084113E-24
 -1.0535000E-03    1.0065717E-24
 -1.0530000E-03    1.0050032E-24
 -1.0525000E-03    1.0008445E-24
 -1.0520000E-03    9.9566188E-25
 -1.0515000E-03    9.8800973E-25
 -1.0510000E-03    9.7933354E-25
 -1.0505000E-03    9.7005496E-25
 -1.0500000E-03    9.5878864E-25
 -1.0495000E-03    9.4938956E-25
 -1.0490000E-03    9.3980983E-25
 -1.0485000E-03    9.3274470E-25
 -1.0479999E-03    9.2869133E-25
 -1.0474999E-03    9.2825204E-25
 -1.0470001E-03    9.3564307E-25
 -1.0465001E-03    9.5062364E-25
 -1.0460000E-03    9.6970017E-25
 -1.0455000E-03    9.9190887E-25
 -1.0450000E-03    1.0184545E-24
 -1.0445000E-03    1.0481326E-24
 -1.0440000E-03    1.0734737E-24
 -1.0435000E-03    1.0932735E-24
 -1.0430000E-03    1.1007855E-24
 -1.0425000E-03    1.0911911E-24
 -1.0420000E-03    1.0737285E-24
 -1.0415000E-03    1.0501221E-24
 -1.0410000E-03    1.0086863E-24
 -1.0405000E-03    9.6146771E-25
 -1.0400000E-03    9.0364776E-25
 -1.0395000E-03    8.3522640E-25
 -1.0390000E-03    7.5234838E-25
 -1.0385000E-03    6.7428877E-25
 -1.0380000E-03    6.1646773E-25
 -1.0375000E-03    5.8755898E-25
 -1.0370000E-03    5.8178009E-25
 -1.0365000E-03    6.0491388E-25
 -1.0360000E-03    6.5099716E-25
 -1.0355000E-03    7.2093367E-25
 -1.0350000E-03    8.0918241E-25
 -1.0345000E-03    9.6007557E-25
 -1.0340000E-03    1.1514472E-24
 -1.0335000E-03    1.4064264E-24
 -1.0329999E-03    1.6652611E-24
 -1.0324999E-03    1.8797632E-24
 -1.0319999E-03    2.0075279E-24
 -1.0315001E-03    2.0716848E-24
 -1.0310001E-03    2.0163364E-24
 -1.0305000E-03    1.8684668E-24
 -1.0300000E-03    1.5919372E-24
 -1.0295000E-03    1.2383078E-24
 -1.0290000E-03    7.2469678E-25
 -1.0285000E-03    2.2650593E-25
 -1.0280000E-03   -3.1794509E-25
 -1.0275000E-03   -8.3926645E-25
 -1.0270000E-03   -1.2449400E-24
 -1.0265000E-03   -1.6737424E-24
 -1.0260000E-03   -2.0023150E-24
 -1.0255000E-03   -2.1766891E-24
 -1.0250000E-03   -2.1737354E-24
 -1.0245000E-03   -2.1129566E-24
 -1.0240000E-03   -1.8719586E-24
 -1.0235000E-03   -1.4459258E-24
 -1.0230000E-03   -1.2820330E-24
 -1.0225000E-03   -1.2414952E-24
 -1.0220000E-03   -1.1701159E-24
 -1.0215000E-03   -1.0524774E-24
 -1.0210000E-03   -8.4231659E-25
 -1.0205000E-03   -3.7000801E-25
 -1.0200000E-03    4.5696070E-25
 -1.0195000E-03    1.8082112E-24
 -1.0190000E-03    4.0461098E-24
 -1.0185000E-03    5.9794793E-24
 -1.0180000E-03    7.3114800E-24
 -1.0174999E-03    8.7205765E-24
 -1.0169999E-03    9.2353271E-24
 -1.0165001E-03    8.6398571E-24
 -1.0160001E-03    7.4892782E-24
 -1.0155000E-03    7.0788402E-24
 -1.0150000E-03    5.8665475E-24
 -1.0145000E-03    3.1122488E-24
 -1.0140000E-03   -1.8008434E-24
 -1.0135000E-03   -8.4410073E-24
 -1.0130000E-03   -1.6469013E-23
 -1.0125000E-03   -2.6096874E-23
 -1.0120000E-03   -3.6310725E-23
 -1.0115000E-03   -4.5722772E-23
 -1.0110000E-03   -5.4764744E-23
 -1.0105000E-03   -6.1832975E-23
 -1.0100000E-03   -6.6433984E-23
 -1.0095000E-03   -6.3386690E-23
 -1.0090000E-03   -5.2197642E-23
 -1.0085000E-03   -3.4840566E-23
 -1.0080000E-03   -1.3412508E-23
 -1.0075000E-03    1.0112816E-23
 -1.0070000E-03    3.9189423E-23
 -1.0065000E-03    7.0116532E-23
 -1.0060000E-03    1.0351089E-22
 -1.0055000E-03    1.3739871E-22
 -1.0050000E-03    1.7400036E-22
 -1.0045000E-03    1.9826612E-22
 -1.0040000E-03    2.2351847E-22
 -1.0035000E-03    2.2952672E-22
 -1.0030000E-03    2.2171841E-22
 -1.0025000E-03    1.9121179E-22
 -1.0019999E-03    1.3504615E-22
 -1.0014999E-03    5.2234863E-23
 -1.0010001E-03   -4.4146291E-23
 -1.0005001E-03   -1.5829135E-22
 -1.0000000E-03   -2.7539717E-22
 -9.9950004E-04   -3.6585789E-22
 -9.9900004E-04   -4.6914752E-22
 -9.9850004E-04   -5.3888343E-22
 -9.9800003E-04   -5.5730168E-22
 -9.9750003E-04   -5.4216560E-22
 -9.9700002E-04   -4.7965878E-22
 -9.9650002E-04   -4.2899311E-22
 -9.9600002E-04   -3.6253606E-22
 -9.9550001E-04   -2.3686550E-22
 -9.9500001E-04   -1.3204151E-22
 -9.9450001E-04   -1.7842620E-23
 -9.9400000E-04    7.0697260E-23
 -9.9350000E-04    8.2261336E-23
 -9.9299999E-04    3.0317804E-24
 -9.9249999E-04   -1.3541163E-22
 -9.9199999E-04   -4.4754576E-22
 -9.9149998E-04   -9.2547516E-22
 -9.9099998E-04   -1.4034073E-21
 -9.9049998E-04   -1.8813413E-21
 -9.8999997E-04   -2.4777014E-21
 -9.8949997E-04   -2.9793236E-21
 -9.8899996E-04   -3.4983403E-21
 -9.8849996E-04   -3.9640664E-21
 -9.8799996E-04   -4.1495188E-21
 -9.8749995E-04   -4.0665398E-21
 -9.8699995E-04   -3.5888103E-21
 -9.8649994E-04   -2.9847583E-21
 -9.8600006E-04   -1.9385820E-21
 -9.8550005E-04   -4.9765314E-22
 -9.8500005E-04    1.1169659E-21
 -9.8450005E-04    2.8184319E-21
 -9.8400004E-04    4.4646330E-21
 -9.8350004E-04    5.5621329E-21
 -9.8300003E-04    6.5346671E-21
 -9.8250003E-04    7.1756076E-21
 -9.8200003E-04    7.6428572E-21
 -9.8150002E-04    8.0943105E-21
 -9.8100002E-04    7.8510014E-21
 -9.8050002E-04    6.7234488E-21
 -9.8000001E-04    5.0590281E-21
 -9.7950001E-04    2.7314263E-21
 -9.7900000E-04   -3.5410025E-22
 -9.7850000E-04   -4.3238613E-21
 -9.7800000E-04   -8.4673083E-21
 -9.7749999E-04   -1.1000182E-20
 -9.7699999E-04   -1.2591574E-20
 -9.7649998E-04   -1.2809228E-20
 -9.7599998E-04   -1.1542612E-20
 -9.7549998E-04   -7.7180079E-21
 -9.7499997E-04   -3.0091383E-21
 -9.7450003E-04    2.8997897E-21
 -9.7400002E-04    9.8193100E-21
 -9.7350002E-04    1.6991485E-20
 -9.7300002E-04    2.2584677E-20
 -9.7250001E-04    2.7798910E-20
 -9.7200001E-04    3.1497296E-20
 -9.7150001E-04    3.3837733E-20
 -9.7100000E-04    3.2885945E-20
 -9.7050000E-04    2.8965590E-20
 -9.6999999E-04    2.2645085E-20
 -9.6949999E-04    1.5187645E-20
 -9.6899999E-04    4.3195028E-21
 -9.6849998E-04   -1.0211951E-20
 -9.6799998E-04   -2.7775148E-20
 -9.6749997E-04   -4.4454153E-20
 -9.6700003E-04   -5.9491004E-20
 -9.6650003E-04   -7.2127752E-20
 -9.6600002E-04   -7.7816874E-20
 -9.6550002E-04   -7.5674088E-20
 -9.6500001E-04   -6.8423133E-20
 -9.6450001E-04   -5.3656017E-20
 -9.6400001E-04   -3.0678029E-20
 -9.6350000E-04   -3.6577390E-21
 -9.6300000E-04    2.5889007E-20
 -9.6249999E-04    5.9477995E-20
 -9.6199999E-04    9.5088121E-20
 -9.6149999E-04    1.2741403E-19
 -9.6099998E-04    1.5291873E-19
 -9.6049998E-04    1.6730728E-19
 -9.5999998E-04    1.6451628E-19
 -9.5949997E-04    1.4820900E-19
 -9.5900003E-04    1.1320625E-19
 -9.5850002E-04    5.7234294E-20
 -9.5800002E-04   -3.7906056E-21
 -9.5750001E-04   -7.3405416E-20
 -9.5700001E-04   -1.4251517E-19
 -9.5650001E-04   -2.1213033E-19
 -9.5600000E-04   -2.8679841E-19
 -9.5550000E-04   -3.5792961E-19
 -9.5500000E-04   -4.0986024E-19
 -9.5449999E-04   -4.3147411E-19
 -9.5399999E-04   -4.2832917E-19
 -9.5349998E-04   -3.9221451E-19
 -9.5299998E-04   -3.1643507E-19
 -9.5249998E-04   -1.9341177E-19
 -9.5199997E-04   -6.0282558E-20
 -9.5150003E-04    9.7100425E-20
 -9.5100002E-04    2.6762103E-19
 -9.5050002E-04    4.1995205E-19
 -9.5000002E-04    5.7733609E-19
 -9.4950001E-04    7.1147712E-19
 -9.4900001E-04    8.1226960E-19
 -9.4850000E-04    8.8779796E-19
 -9.4800000E-04    9.0673460E-19
 -9.4750000E-04    8.4987871E-19
 -9.4699999E-04    7.4224147E-19
 -9.4649999E-04    5.6942214E-19
 -9.4599999E-04    3.3798946E-19
 -9.4549998E-04    8.6344692E-20
 -9.4499998E-04   -2.1380758E-19
 -9.4449997E-04   -5.1598131E-19
 -9.4400003E-04   -8.1613408E-19
 -9.4350002E-04   -1.0980967E-18
 -9.4300002E-04   -1.3457001E-18
 -9.4250002E-04   -1.4780990E-18
 -9.4200001E-04   -1.5235884E-18
 -9.4150001E-04   -1.4680211E-18
 -9.4100001E-04   -1.2818377E-18
 -9.4050000E-04   -9.4710040E-19
 -9.4000000E-04   -5.2545294E-19
 -9.3949999E-04    4.3738005E-20
 -9.3899999E-04    7.2207160E-19
 -9.3849999E-04    1.4246602E-18
 -9.3799998E-04    2.0706589E-18
 -9.3749998E-04    2.6519818E-18
 -9.3699998E-04    3.1120367E-18
 -9.3649997E-04    3.4285900E-18
 -9.3600003E-04    3.4965429E-18
 -9.3550002E-04    3.2067544E-18
 -9.3500002E-04    2.5844882E-18
 -9.3450001E-04    1.6691559E-18
 -9.3400001E-04    5.1937021E-19
 -9.3350001E-04   -8.1636197E-19
 -9.3300000E-04   -2.1520981E-18
 -9.3250000E-04   -3.4959209E-18
 -9.3200000E-04   -4.6295500E-18
 -9.3149999E-04   -5.4398007E-18
 -9.3099999E-04   -5.8660365E-18
 -9.3049998E-04   -5.9608049E-18
 -9.2999998E-04   -5.6755968E-18
 -9.2949998E-04   -4.7759630E-18
 -9.2899997E-04   -3.2500276E-18
 -9.2850003E-04   -1.1399803E-18
 -9.2800002E-04    1.3945101E-18
 -9.2750002E-04    4.4787529E-18
 -9.2700002E-04    7.6034235E-18
 -9.2650001E-04    1.0445145E-17
 -9.2600001E-04    1.2623941E-17
 -9.2550000E-04    1.4180233E-17
 -9.2500000E-04    1.4734049E-17
 -9.2450000E-04    1.4366228E-17
 -9.2399999E-04    1.3076766E-17
 -9.2349999E-04    1.0703974E-17
 -9.2299999E-04    7.2407735E-18
 -9.2249998E-04    2.9640576E-18
 -9.2199998E-04   -2.1736718E-18
 -9.2149997E-04   -7.8813719E-18
 -9.2100003E-04   -1.3993310E-17
 -9.2050002E-04   -1.9668699E-17
 -9.2000002E-04   -2.4382040E-17
 -9.1950002E-04   -2.7874627E-17
 -9.1900001E-04   -3.0017101E-17
 -9.1850001E-04   -3.0477992E-17
 -9.1800001E-04   -2.8836903E-17
 -9.1750000E-04   -2.4915970E-17
 -9.1700000E-04   -1.8666677E-17
 -9.1649999E-04   -9.8747879E-18
 -9.1599999E-04    9.8473794E-19
 -9.1549999E-04    1.3206522E-17
 -9.1499998E-04    2.6701633E-17
 -9.1449998E-04    3.9501497E-17
 -9.1399997E-04    5.1565675E-17
 -9.1349997E-04    6.1220676E-17
 -9.1300003E-04    6.7027451E-17
 -9.1250002E-04    6.8743460E-17
 -9.1200002E-04    6.5430893E-17
 -9.1150001E-04    5.7041243E-17
 -9.1100001E-04    4.3542152E-17
 -9.1050001E-04    2.4917461E-17
 -9.1000000E-04    2.3474962E-18
 -9.0950000E-04   -2.2567009E-17
 -9.0899999E-04   -4.9090354E-17
 -9.0849999E-04   -7.5484367E-17
 -9.0799999E-04   -1.0070410E-16
 -9.0749998E-04   -1.2049107E-16
 -9.0699998E-04   -1.3448951E-16
 -9.0649998E-04   -1.3988604E-16
 -9.0599997E-04   -1.3545178E-16
 -9.0550003E-04   -1.2121910E-16
 -9.0500002E-04   -9.6961589E-17
 -9.0450002E-04   -6.3908093E-17
 -9.0400001E-04   -2.3287459E-17
 -9.0350001E-04    2.2248606E-17
 -9.0300001E-04    7.0210065E-17
 -9.0250000E-04    1.1755714E-16
 -9.0200000E-04    1.5985951E-16
 -9.0150000E-04    1.9350339E-16
 -9.0099999E-04    2.1482651E-16
 -9.0049999E-04    2.2169449E-16
 -8.9999998E-04    2.1213476E-16
 -8.9949998E-04    1.8562984E-16
 -8.9899998E-04    1.4250308E-16
 -8.9849997E-04    8.3853985E-17
 -8.9800003E-04    1.3433752E-17
 -8.9750002E-04   -6.4747721E-17
 -8.9700002E-04   -1.4448152E-16
 -8.9650002E-04   -2.2221044E-16
 -8.9600001E-04   -2.9004404E-16
 -8.9550001E-04   -3.4491010E-16
 -8.9500000E-04   -3.7376433E-16
 -8.9450000E-04   -3.8046695E-16
 -8.9400000E-04   -3.5987621E-16
 -8.9349999E-04   -3.0875828E-16
 -8.9299999E-04   -2.2698381E-16
 -8.9249999E-04   -1.2063226E-16
 -8.9199998E-04    1.5004505E-18
 -8.9149998E-04    1.3449895E-16
 -8.9099997E-04    2.7034343E-16
 -8.9050003E-04    3.9946182E-16
 -8.9000002E-04    5.1267003E-16
 -8.8950002E-04    5.9755030E-16
 -8.8900002E-04    6.4556531E-16
 -8.8850001E-04    6.4720766E-16
 -8.8800001E-04    6.0383534E-16
 -8.8750001E-04    5.2165710E-16
 -8.8700000E-04    3.9756857E-16
 -8.8650000E-04    2.3415670E-16
 -8.8599999E-04    4.3839206E-17
 -8.8549999E-04   -1.6665761E-16
 -8.8499999E-04   -3.8077673E-16
 -8.8449998E-04   -5.8842865E-16
 -8.8399998E-04   -7.7176263E-16
 -8.8349998E-04   -9.3039052E-16
 -8.8299997E-04   -1.0480785E-15
 -8.8250003E-04   -1.1134435E-15
 -8.8200002E-04   -1.1130976E-15
 -8.8150002E-04   -1.0444536E-15
 -8.8100001E-04   -8.9405873E-16
 -8.8050001E-04   -6.7898738E-16
 -8.8000001E-04   -3.9820469E-16
 -8.7950000E-04   -6.9302436E-17
 -8.7900000E-04    2.9581895E-16
 -8.7850000E-04    6.6870207E-16
 -8.7799999E-04    1.0255461E-15
 -8.7749999E-04    1.3482417E-15
 -8.7699998E-04    1.6005702E-15
 -8.7649998E-04    1.7649393E-15
 -8.7599998E-04    1.8273789E-15
 -8.7549997E-04    1.7785752E-15
 -8.7500003E-04    1.6128365E-15
 -8.7450002E-04    1.3332670E-15
 -8.7400002E-04    9.3572778E-16
 -8.7350002E-04    4.4608879E-16
 -8.7300001E-04   -1.0046639E-16
 -8.7250001E-04   -6.8841518E-16
 -8.7200000E-04   -1.2732605E-15
 -8.7150000E-04   -1.8130918E-15
 -8.7100000E-04   -2.2608250E-15
 -8.7049999E-04   -2.5905245E-15
 -8.6999999E-04   -2.7536181E-15
 -8.6949999E-04   -2.6973307E-15
 -8.6899998E-04   -2.4361483E-15
 -8.6849998E-04   -1.9586883E-15
 -8.6799997E-04   -1.2732287E-15
 -8.6750003E-04   -4.2012712E-16
 -8.6700002E-04    5.6439775E-16
 -8.6650002E-04    1.6037696E-15
 -8.6600002E-04    2.6172731E-15
 -8.6550001E-04    3.5459234E-15
 -8.6500001E-04    4.2919299E-15
 -8.6450001E-04    4.7808509E-15
 -8.6400000E-04    4.9572578E-15
 -8.6350000E-04    4.7818267E-15
 -8.6299999E-04    4.2421392E-15
 -8.6249999E-04    3.3112894E-15
 -8.6199999E-04    2.0451566E-15
 -8.6149998E-04    5.4515183E-16
 -8.6099998E-04   -1.2135604E-15
 -8.6049997E-04   -3.0219482E-15
 -8.5999997E-04   -4.7930863E-15
 -8.5950003E-04   -6.4090058E-15
 -8.5900002E-04   -7.6968910E-15
 -8.5850002E-04   -8.5537783E-15
 -8.5800001E-04   -8.8784791E-15
 -8.5750001E-04   -8.6521409E-15
 -8.5700001E-04   -7.8680323E-15
 -8.5650000E-04   -6.4920065E-15
 -8.5600000E-04   -4.5157825E-15
 -8.5549999E-04   -2.1214861E-15
 -8.5499999E-04    5.7705289E-16
 -8.5449999E-04    3.4701443E-15
 -8.5399998E-04    6.4232613E-15
 -8.5349998E-04    9.1673512E-15
 -8.5299998E-04    1.1476822E-14
 -8.5249997E-04    1.3178859E-14
 -8.5200003E-04    1.4077879E-14
 -8.5150002E-04    1.4042459E-14
 -8.5100002E-04    1.2948031E-14
 -8.5050002E-04    1.0753588E-14
 -8.5000001E-04    7.5802012E-15
 -8.4950001E-04    3.6151709E-15
 -8.4900000E-04   -8.9418346E-16
 -8.4850000E-04   -5.8423098E-15
 -8.4800000E-04   -1.0869090E-14
 -8.4749999E-04   -1.5674431E-14
 -8.4699999E-04   -1.9747128E-14
 -8.4649998E-04   -2.2751903E-14
 -8.4599998E-04   -2.4444532E-14
 -8.4549998E-04   -2.4634608E-14
 -8.4499997E-04   -2.3152416E-14
 -8.4450003E-04   -1.9908957E-14
 -8.4400002E-04   -1.4982876E-14
 -8.4350002E-04   -8.3410595E-15
 -8.4300002E-04   -5.0944823E-16
 -8.4250001E-04    7.7650822E-15
 -8.4200001E-04    1.6227967E-14
 -8.4150000E-04    2.4161042E-14
 -8.4100000E-04    3.1262133E-14
 -8.4050000E-04    3.7133863E-14
 -8.3999999E-04    4.0935971E-14
 -8.3949999E-04    4.2271071E-14
 -8.3899999E-04    4.0725239E-14
 -8.3849998E-04    3.6190848E-14
 -8.3799998E-04    2.8634779E-14
 -8.3749997E-04    1.7862490E-14
 -8.3700003E-04    4.4534714E-15
 -8.3650002E-04   -1.0553326E-14
 -8.3600002E-04   -2.6080658E-14
 -8.3550002E-04   -4.1343099E-14
 -8.3500001E-04   -5.4933295E-14
 -8.3450001E-04   -6.5601184E-14
 -8.3400001E-04   -7.2560312E-14
 -8.3350000E-04   -7.4800673E-14
 -8.3300000E-04   -7.2090479E-14
 -8.3249999E-04   -6.3684646E-14
 -8.3199999E-04   -5.0311684E-14
 -8.3149999E-04   -3.2037805E-14
 -8.3099998E-04   -1.0071666E-14
 -8.3049998E-04    1.5168663E-14
 -8.2999998E-04    4.2210640E-14
 -8.2949997E-04    6.9314732E-14
 -8.2900003E-04    9.4034643E-14
 -8.2850002E-04    1.1479744E-13
 -8.2800002E-04    1.2887121E-13
 -8.2750001E-04    1.3579234E-13
 -8.2700001E-04    1.3443494E-13
 -8.2650001E-04    1.2390491E-13
 -8.2600000E-04    1.0403669E-13
 -8.2550000E-04    7.6038920E-14
 -8.2500000E-04    4.1865315E-14
 -8.2449999E-04    2.2775032E-15
 -8.2399999E-04   -3.9330328E-14
 -8.2349998E-04   -7.9746119E-14
 -8.2299998E-04   -1.1723135E-13
 -8.2249998E-04   -1.5003098E-13
 -8.2199997E-04   -1.7359177E-13
 -8.2150003E-04   -1.8549642E-13
 -8.2100002E-04   -1.8594357E-13
 -8.2050002E-04   -1.7410537E-13
 -8.2000002E-04   -1.4955131E-13
 -8.1950001E-04   -1.1304300E-13
 -8.1900001E-04   -6.6534174E-14
 -8.1850000E-04   -1.3071313E-14
 -8.1800000E-04    4.3885167E-14
 -8.1750000E-04    1.0113184E-13
 -8.1699999E-04    1.5544799E-13
 -8.1649999E-04    2.0247907E-13
 -8.1599999E-04    2.3901302E-13
 -8.1549998E-04    2.6163902E-13
 -8.1499998E-04    2.6585364E-13
 -8.1449997E-04    2.5165677E-13
 -8.1400003E-04    2.1918089E-13
 -8.1350002E-04    1.7273077E-13
 -8.1300002E-04    1.1177660E-13
 -8.1250002E-04    4.0689403E-14
 -8.1200001E-04   -3.6722673E-14
 -8.1150001E-04   -1.1408517E-13
 -8.1100001E-04   -1.8340106E-13
 -8.1050000E-04   -2.4033241E-13
 -8.1000000E-04   -2.7991203E-13
 -8.0949999E-04   -3.0439163E-13
 -8.0899999E-04   -3.0800934E-13
 -8.0849999E-04   -2.8506958E-13
 -8.0799998E-04   -2.3769151E-13
 -8.0749998E-04   -1.6984886E-13
 -8.0699997E-04   -8.5051683E-14
 -8.0649997E-04    1.0607080E-14
 -8.0600003E-04    1.1285570E-13
 -8.0550002E-04    2.1510449E-13
 -8.0500002E-04    3.1635171E-13
 -8.0450001E-04    4.0233349E-13
 -8.0400001E-04    4.6679126E-13
 -8.0350001E-04    5.0250613E-13
 -8.0300000E-04    5.0358367E-13
 -8.0250000E-04    4.7366646E-13
 -8.0200000E-04    4.1447629E-13
 -8.0149999E-04    3.2813241E-13
 -8.0099999E-04    2.1675409E-13
 -8.0049998E-04    7.9281667E-14
 -7.9999998E-04   -7.1834005E-14
 -7.9949998E-04   -2.2718855E-13
 -7.9899997E-04   -3.7828817E-13
 -7.9850003E-04   -5.1967729E-13
 -7.9800002E-04   -6.3510514E-13
 -7.9750002E-04   -7.1828004E-13
 -7.9700002E-04   -7.5489669E-13
 -7.9650001E-04   -7.4012031E-13
 -7.9600001E-04   -6.7156659E-13
 -7.9550000E-04   -5.4791095E-13
 -7.9500000E-04   -3.7670320E-13
 -7.9450000E-04   -1.6403632E-13
 -7.9399999E-04    7.6049362E-14
 -7.9349999E-04    3.3203017E-13
 -7.9299998E-04    5.8304430E-13
 -7.9249998E-04    8.1222008E-13
 -7.9199998E-04    1.0046313E-12
 -7.9149997E-04    1.1323049E-12
 -7.9100003E-04    1.1828890E-12
 -7.9050002E-04    1.1443302E-12
 -7.9000002E-04    1.0158335E-12
 -7.8950002E-04    7.9448470E-13
 -7.8900001E-04    4.9816526E-13
 -7.8850001E-04    1.3349799E-13
 -7.8800000E-04   -2.7342340E-13
 -7.8750000E-04   -6.9624016E-13
 -7.8700000E-04   -1.1001163E-12
 -7.8649999E-04   -1.4557792E-12
 -7.8599999E-04   -1.7341545E-12
 -7.8549999E-04   -1.9122607E-12
 -7.8499998E-04   -1.9652665E-12
 -7.8449998E-04   -1.8994591E-12
 -7.8399997E-04   -1.7062949E-12
 -7.8350003E-04   -1.3902110E-12
 -7.8300002E-04   -9.6379035E-13
 -7.8250002E-04   -4.4411973E-13
 -7.8200002E-04    1.2747458E-13
 -7.8150001E-04    7.1337527E-13
 -7.8100001E-04    1.2738454E-12
 -7.8050001E-04    1.7770952E-12
 -7.8000000E-04    2.1771623E-12
 -7.7950000E-04    2.4369591E-12
 -7.7899999E-04    2.5481401E-12
 -7.7849999E-04    2.4942808E-12
 -7.7799999E-04    2.2669698E-12
 -7.7749998E-04    1.8820039E-12
 -7.7699998E-04    1.3625941E-12
 -7.7649998E-04    7.3258229E-13
 -7.7599997E-04    3.5943887E-14
 -7.7550003E-04   -6.7526578E-13
 -7.7500002E-04   -1.3591908E-12
 -7.7450002E-04   -1.9697360E-12
 -7.7400001E-04   -2.4679594E-12
 -7.7350001E-04   -2.8194220E-12
 -7.7300001E-04   -2.9880952E-12
 -7.7250000E-04   -2.9652366E-12
 -7.7200000E-04   -2.7312423E-12
 -7.7150000E-04   -2.3022717E-12
 -7.7099999E-04   -1.6960073E-12
 -7.7049999E-04   -9.5677177E-13
 -7.6999998E-04   -1.5183623E-13
 -7.6949998E-04    6.7614843E-13
 -7.6899998E-04    1.4424105E-12
 -7.6849997E-04    2.0958216E-12
 -7.6800003E-04    2.6104199E-12
 -7.6750002E-04    2.9411701E-12
 -7.6700002E-04    3.0663482E-12
 -7.6650002E-04    2.9684701E-12
 -7.6600001E-04    2.6443561E-12
 -7.6550001E-04    2.1109601E-12
 -7.6500000E-04    1.4244426E-12
 -7.6450000E-04    5.9023446E-13
 -7.6400000E-04   -3.2980763E-13
 -7.6349999E-04   -1.2832314E-12
 -7.6299999E-04   -2.2080473E-12
 -7.6249999E-04   -3.0019990E-12
 -7.6199998E-04   -3.6703843E-12
 -7.6149998E-04   -4.1618089E-12
 -7.6099997E-04   -4.4466032E-12
 -7.6050003E-04   -4.5258255E-12
 -7.6000002E-04   -4.3793419E-12
 -7.5950002E-04   -4.0092708E-12
 -7.5900002E-04   -3.3864719E-12
 -7.5850001E-04   -2.5347864E-12
 -7.5800001E-04   -1.4769967E-12
 -7.5750001E-04   -2.1946064E-13
 -7.5700000E-04    1.1625871E-12
 -7.5650000E-04    2.5764271E-12
 -7.5599999E-04    3.9341087E-12
 -7.5549999E-04    5.1614563E-12
 -7.5499999E-04    6.1578021E-12
 -7.5449998E-04    6.8447318E-12
 -7.5399998E-04    7.1904548E-12
 -7.5349997E-04    7.1006621E-12
 -7.5299997E-04    6.5393242E-12
 -7.5250003E-04    5.6134646E-12
 -7.5200002E-04    4.3098376E-12
 -7.5150002E-04    2.8577232E-12
 -7.5100001E-04    1.1343348E-12
 -7.5050001E-04   -6.7170992E-13
 -7.5000001E-04   -2.5265020E-12
 -7.4950000E-04   -4.2668555E-12
 -7.4900000E-04   -5.7423003E-12
 -7.4850000E-04   -6.9146863E-12
 -7.4799999E-04   -7.6208276E-12
 -7.4749999E-04   -7.8776777E-12
 -7.4699998E-04   -7.7254999E-12
 -7.4649998E-04   -7.1219090E-12
 -7.4599998E-04   -6.1622716E-12