 -1.2000001E-03    1.0000000E-24
 -1.1995001E-03    1.0000000E-24
 -1.1990000E-03    1.0000000E-24
 -1.1985000E-03    1.0000000E-24
 -1.1980000E-03    1.0000000E-24
 -1.1975000E-03    1.0000000E-24
 -1.1970000E-03    1.0000000E-24
 -1.1965000E-03    1.0000000E-24
 -1.1960000E-03    1.0000000E-24
 -1.1955000E-03    1.0000001E-24
 -1.1950000E-03    1.0000002E-24
 -1.1945000E-03    1.0000002E-24
 -1.1940000E-03    1.0000002E-24
 -1.1935000E-03    1.0000002E-24
 -1.1930000E-03    1.0000002E-24
 -1.1925000E-03    1.0000002E-24
 -1.1920000E-03    1.0000002E-24
 -1.1915000E-03    1.0000002E-24
 -1.1910000E-03    1.0000002E-24
 -1.1905000E-03    1.0000002E-24
 -1.1900000E-03    1.0000002E-24
 -1.1895000E-03    1.0000002E-24
 -1.1890000E-03    1.0000002E-24
 -1.1885000E-03    1.0000002E-24
 -1.1880000E-03    1.0000002E-24
 -1.1875000E-03    1.0000002E-24
 -1.1870000E-03    1.0000002E-24
 -1.1865000E-03    1.0000002E-24
 -1.1860000E-03    1.0000002E-24
 -1.1854999E-03    1.0000002E-24
 -1.1849999E-03    1.0000001E-24
 -1.1845001E-03    1.0000000E-24
 -1.1840001E-03    1.0000000E-24
 -1.1835000E-03    1.0000000E-24
 -1.1830000E-03    1.0000000E-24
 -1.1825000E-03    1.0000000E-24
 -1.1820000E-03    1.0000002E-24
 -1.1815000E-03    1.0000009E-24
 -1.1810000E-03    1.0000031E-24
 -1.1805000E-03    1.0000089E-24
 -1.1800000E-03    1.0000234E-24
 -1.1795000E-03    1.0000571E-24
 -1.1790000E-03    1.0001311E-24
 -1.1785000E-03    1.0002857E-24
 -1.1780000E-03    1.0005946E-24
 -1.1775000E-03    1.0011873E-24
 -1.1770000E-03    1.0022801E-24
 -1.1765000E-03    1.0042202E-24
 -1.1760000E-03    1.0075354E-24
 -1.1755000E-03    1.0129835E-24
 -1.1750000E-03    1.0215742E-24
 -1.1745000E-03    1.0345185E-24
 -1.1740000E-03    1.0530212E-24
 -1.1735000E-03    1.0777858E-24
 -1.1730000E-03    1.1080346E-24
 -1.1725000E-03    1.1397735E-24
 -1.1720000E-03    1.1629625E-24
 -1.1715000E-03    1.1572125E-24
 -1.1710000E-03    1.0856664E-24
 -1.1704999E-03    8.8690724E-25
 -1.1699999E-03    4.6515952E-25
 -1.1695001E-03   -3.2016502E-25
 -1.1690001E-03   -1.6632371E-24
 -1.1685000E-03   -3.8146501E-24
 -1.1680000E-03   -7.0714714E-24
 -1.1675000E-03   -1.1744373E-23
 -1.1670000E-03   -1.8088019E-23
 -1.1665000E-03   -2.6177324E-23
 -1.1660000E-03   -3.5709783E-23
 -1.1655000E-03   -4.5714360E-23
 -1.1650000E-03   -5.4152543E-23
 -1.1645000E-03   -5.7410148E-23
 -1.1640000E-03   -4.9702314E-23
 -1.1635000E-03   -2.2452534E-23
 -1.1630000E-03    3.6237910E-23
 -1.1625000E-03    1.4183966E-22
 -1.1620000E-03    3.1308312E-22
 -1.1615000E-03    5.7070313E-22
 -1.1610000E-03    9.3476195E-22
 -1.1605000E-03    1.4200027E-21
 -1.1600000E-03    2.0286705E-21
 -1.1595000E-03    2.7403314E-21
 -1.1590000E-03    3.4984606E-21
 -1.1585000E-03    4.1940262E-21
 -1.1580000E-03    4.6470175E-21
 -1.1575000E-03    4.5878963E-21
 -1.1570000E-03    3.6422895E-21
 -1.1565000E-03    1.3238674E-21
 -1.1560000E-03   -2.9578779E-21
 -1.1555000E-03   -9.8665183E-21
 -1.1549999E-03   -2.0074481E-20
 -1.1544999E-03   -3.4155512E-20
 -1.1540001E-03   -5.2424558E-20
 -1.1535001E-03   -7.4718915E-20
 -1.1530000E-03   -1.0012039E-19
 -1.1525000E-03   -1.2662773E-19
 -1.1520000E-03   -1.5080168E-19
 -1.1515000E-03   -1.6742252E-19
 -1.1510000E-03   -1.6922036E-19
 -1.1505000E-03   -1.4676096E-19
 -1.1500000E-03   -8.8592103E-20
 -1.1495000E-03    1.8226892E-20
 -1.1490000E-03    1.8708104E-19
 -1.1485000E-03    4.3011541E-19
 -1.1480000E-03    7.5581333E-19
 -1.1475000E-03    1.1657959E-18
 -1.1470000E-03    1.6508910E-18
 -1.1465000E-03    2.1866503E-18
 -1.1460000E-03    2.7286563E-18
 -1.1455000E-03    3.2081602E-18
 -1.1450000E-03    3.5288096E-18
 -1.1445000E-03    3.5654380E-18
 -1.1440000E-03    3.1660739E-18
 -1.1435000E-03    2.1584352E-18
 -1.1430000E-03    3.6216924E-19
 -1.1425000E-03   -2.3920845E-18
 -1.1420000E-03   -6.2361345E-18
 -1.1415000E-03   -1.1230165E-17
 -1.1410000E-03   -1.7322102E-17
 -1.1405000E-03   -2.4302616E-17
 -1.1399999E-03   -3.1759434E-17
 -1.1394999E-03   -3.9036334E-17
 -1.1390001E-03   -4.5203779E-17
 -1.1385001E-03   -4.9049746E-17
 -1.1380001E-03   -4.9100217E-17
 -1.1375000E-03   -4.3679113E-17
 -1.1370000E-03   -3.1016686E-17
 -1.1365000E-03   -9.4130573E-18
 -1.1360000E-03    2.2540175E-17
 -1.1355000E-03    6.5683150E-17
 -1.1350000E-03    1.1996612E-16
 -1.1345000E-03    1.8410251E-16
 -1.1340000E-03    2.5522630E-16
 -1.1335000E-03    3.2859404E-16
 -1.1330000E-03    3.9738125E-16
 -1.1325000E-03    4.5263016E-16
 -1.1320000E-03    4.8341023E-16
 -1.1315000E-03    4.7724891E-16
 -1.1310000E-03    4.2088262E-16
 -1.1305000E-03    3.0135815E-16
 -1.1300000E-03    1.0748803E-16
 -1.1295000E-03   -1.6837445E-16
 -1.1290000E-03   -5.2832060E-16
 -1.1285000E-03   -9.6676360E-16
 -1.1280000E-03   -1.4683947E-15
 -1.1275000E-03   -2.0064559E-15
 -1.1270000E-03   -2.5416094E-15
 -1.1265000E-03   -3.0217113E-15
 -1.1260000E-03   -3.3827961E-15
 -1.1255000E-03   -3.5515499E-15
 -1.1250000E-03   -3.4494794E-15
 -1.1244999E-03   -2.9988776E-15
 -1.1239999E-03   -2.1305276E-15
 -1.1235001E-03   -7.9289928E-16
 -1.1230001E-03    1.0376281E-15
 -1.1225000E-03    3.3462238E-15
 -1.1220000E-03    6.0696755E-15
 -1.1215000E-03    9.0882053E-15
 -1.1210000E-03    1.2220309E-14
 -1.1205000E-03    1.5221943E-14
 -1.1200000E-03    1.7791314E-14
 -1.1195000E-03    1.9580337E-14
 -1.1190000E-03    2.0213438E-14
 -1.1185000E-03    1.9313869E-14
 -1.1180000E-03    1.6537044E-14
 -1.1175000E-03    1.1609595E-14
 -1.1170000E-03    4.3719927E-15
 -1.1165000E-03   -5.1782521E-15
 -1.1160000E-03   -1.6846601E-14
 -1.1155000E-03   -3.0209098E-14
 -1.1150000E-03   -4.4592256E-14
 -1.1145000E-03   -5.9069950E-14
 -1.1140000E-03   -7.2481463E-14
 -1.1135000E-03   -8.3473925E-14
 -1.1130000E-03   -9.0570922E-14
 -1.1125000E-03   -9.2267116E-14
 -1.1120000E-03   -8.7146294E-14
 -1.1115000E-03   -7.4017825E-14
 -1.1110000E-03   -5.2063781E-14
 -1.1105000E-03   -2.0986481E-14
 -1.1100000E-03    1.8855753E-14
 -1.1094999E-03    6.6338299E-14
 -1.1089999E-03    1.1949945E-13
 -1.1084999E-03    1.7552255E-13
 -1.1080001E-03    2.3078241E-13
 -1.1075001E-03    2.8096430E-13
 -1.1070000E-03    3.2125916E-13
 -1.1065000E-03    3.4663326E-13
 -1.1060000E-03    3.5216418E-13
 -1.1055000E-03    3.3342881E-13
 -1.1050000E-03    2.8692242E-13
 -1.1045000E-03    2.1048243E-13
 -1.1040000E-03    1.0368647E-13
 -1.1035000E-03   -3.1808201E-14
 -1.1030000E-03   -1.9201703E-13
 -1.1025000E-03   -3.7050322E-13
 -1.1020000E-03   -5.5840163E-13
 -1.1015000E-03   -7.4461037E-13
 -1.1010000E-03   -9.1616081E-13
 -1.1005000E-03   -1.0587654E-12
 -1.1000000E-03   -1.1575314E-12
 -1.0995000E-03   -1.1978201E-12
 -1.0990000E-03   -1.1662153E-12
 -1.0985000E-03   -1.0515639E-12
 -1.0980000E-03   -8.4603440E-13
 -1.0975000E-03   -5.4614435E-13
 -1.0970000E-03   -1.5369598E-13
 -1.0965000E-03    3.2343580E-13
 -1.0960000E-03    8.7072222E-13
 -1.0955000E-03    1.4666619E-12
 -1.0950000E-03    2.0827803E-12
 -1.0945000E-03    2.6839991E-12
 -1.0939999E-03    3.2294250E-12
 -1.0934999E-03    3.6736031E-12
 -1.0930001E-03    3.9682736E-12
 -1.0925001E-03    4.0646562E-12
 -1.0920000E-03    3.9162710E-12
 -1.0915000E-03    3.4822763E-12
 -1.0910000E-03    2.7312657E-12
 -1.0905000E-03    1.6454126E-12
 -1.0900000E-03    2.2479176E-13
 -1.0895000E-03   -1.5083690E-12
 -1.0890000E-03   -3.5058332E-12
 -1.0885000E-03   -5.6903024E-12
 -1.0880000E-03   -7.9536377E-12
 -1.0875000E-03   -1.0156877E-11
 -1.0870000E-03   -1.2132585E-11
 -1.0865000E-03   -1.3690022E-11
 -1.0860000E-03   -1.4623535E-11
 -1.0855000E-03   -1.4724381E-11
 -1.0850000E-03   -1.3795970E-11
 -1.0845000E-03   -1.1672165E-11
 -1.0840000E-03   -8.2379095E-12
 -1.0835000E-03   -3.4510229E-12
 -1.0830000E-03    2.6364388E-12
 -1.0825000E-03    9.8592445E-12
 -1.0820000E-03    1.7924790E-11
 -1.0815000E-03    2.6406120E-11
 -1.0810000E-03    3.4744645E-11
 -1.0805000E-03    4.2264747E-11
 -1.0800000E-03    4.8201935E-11
 -1.0795000E-03    5.1745365E-11
 -1.0790000E-03    5.2094409E-11
 -1.0784999E-03    4.8527581E-11
 -1.0779999E-03    4.0480591E-11
 -1.0775001E-03    2.7628694E-11
 -1.0770001E-03    9.9669578E-12
 -1.0765000E-03   -1.2119144E-11
 -1.0760000E-03   -3.7801266E-11
 -1.0755000E-03   -6.5782539E-11
 -1.0750000E-03   -9.4306854E-11
 -1.0745000E-03   -1.2120975E-10
 -1.0740000E-03   -1.4401533E-10
 -1.0735000E-03   -1.6008010E-10
 -1.0730000E-03   -1.6678109E-10
 -1.0725000E-03   -1.6174020E-10
 -1.0720000E-03   -1.4307283E-10
 -1.0715000E-03   -1.0964327E-10
 -1.0710000E-03   -6.1305995E-11
 -1.0705000E-03    8.9125929E-13
 -1.0700000E-03    7.4567984E-11
 -1.0695000E-03    1.5595908E-10
 -1.0690000E-03    2.3997210E-10
 -1.0685000E-03    3.2036862E-10
 -1.0680000E-03    3.9007714E-10
 -1.0675000E-03    4.4163351E-10
 -1.0670000E-03    4.6773418E-10
 -1.0665000E-03    4.6187337E-10
 -1.0660000E-03    4.1902395E-10
 -1.0655000E-03    3.3631006E-10
 -1.0650000E-03    2.1361177E-10
 -1.0645000E-03    5.4037746E-11
 -1.0640000E-03   -1.3579740E-10
 -1.0634999E-03   -3.4574721E-10
 -1.0629999E-03   -5.6240257E-10
 -1.0625001E-03   -7.6968043E-10
 -1.0620001E-03   -9.4973196E-10
 -1.0615001E-03   -1.0841424E-09
 -1.0610000E-03   -1.1553649E-09
 -1.0605000E-03   -1.1482995E-09
 -1.0600000E-03   -1.0519051E-09
 -1.0595000E-03   -8.6070917E-10
 -1.0590000E-03   -5.7607019E-10
 -1.0585000E-03   -2.0704882E-10
 -1.0580000E-03    2.2924412E-10
 -1.0575000E-03    7.0792777E-10
 -1.0570000E-03    1.1973229E-09
 -1.0565000E-03    1.6606281E-09
 -1.0560000E-03    2.0582529E-09
 -1.0555000E-03    2.3506961E-09
 -1.0550000E-03    2.5017945E-09
 -1.0545000E-03    2.4821116E-09
 -1.0540000E-03    2.2721915E-09
 -1.0535000E-03    1.8653852E-09
 -1.0530000E-03    1.2699459E-09
 -1.0525000E-03    5.1012994E-10
 -1.0520000E-03   -3.7392012E-10
 -1.0515000E-03   -1.3276403E-09
 -1.0510000E-03   -2.2848943E-09
 -1.0505000E-03   -3.1721192E-09
 -1.0500000E-03   -3.9135588E-09
 -1.0495000E-03   -4.4372510E-09
 -1.0490000E-03   -4.6813331E-09
 -1.0485000E-03   -4.6001514E-09
 -1.0479999E-03   -4.1696180E-09
 -1.0474999E-03   -3.3912695E-09
 -1.0470001E-03   -2.2945366E-09
 -1.0465001E-03   -9.3684194E-10
 -1.0460000E-03    5.9869576E-10
 -1.0455000E-03    2.2079836E-09
 -1.0450000E-03    3.7729122E-09
 -1.0445000E-03    5.1701381E-09
 -1.0440000E-03    6.2810672E-09
 -1.0435000E-03    7.0022446E-09
 -1.0430000E-03    7.2552391E-09
 -1.0425000E-03    6.9950725E-09
 -1.0420000E-03    6.2162884E-09
 -1.0415000E-03    4.9558890E-09
 -1.0410000E-03    3.2926084E-09
 -1.0405000E-03    1.3422756E-09
 -1.0400000E-03   -7.5060158E-10
 -1.0395000E-03   -2.8245348E-09
 -1.0390000E-03   -4.7151536E-09
 -1.0385000E-03   -6.2705050E-09
 -1.0380000E-03   -7.3661193E-09
 -1.0375000E-03   -7.9182820E-09
 -1.0370000E-03   -7.8940037E-09
 -1.0365000E-03   -7.3163458E-09
 -1.0360000E-03   -6.2641297E-09
 -1.0355000E-03   -4.8655489E-09
 -1.0350000E-03   -3.2857927E-09
 -1.0345000E-03   -1.7094599E-09
 -1.0340000E-03   -3.1919134E-10
 -1.0335000E-03    7.2746831E-10
 -1.0329999E-03    1.3205325E-09
 -1.0324999E-03    1.4166788E-09
 -1.0319999E-03    1.0523540E-09
 -1.0315001E-03    3.4855135E-10
 -1.0310001E-03   -4.9444920E-10
 -1.0305000E-03   -1.2132018E-09
 -1.0300000E-03   -1.5077966E-09
 -1.0295000E-03   -1.0776404E-09
 -1.0290000E-03    3.3642844E-10
 -1.0285000E-03    2.9075640E-09
 -1.0280000E-03    6.6806205E-09
 -1.0275000E-03    1.1537397E-08
 -1.0270000E-03    1.7174674E-08
 -1.0265000E-03    2.3099769E-08
 -1.0260000E-03    2.8647204E-08
 -1.0255000E-03    3.3018399E-08
 -1.0250000E-03    3.5344161E-08
 -1.0245000E-03    3.4767332E-08
 -1.0240000E-03    3.0540313E-08
 -1.0235000E-03    2.2129877E-08
 -1.0230000E-03    9.3195585E-09
 -1.0225000E-03   -7.7013436E-09
 -1.0220000E-03   -2.8273650E-08
 -1.0215000E-03   -5.1239887E-08
 -1.0210000E-03   -7.4960596E-08
 -1.0205000E-03   -9.7381438E-08
 -1.0200000E-03   -1.1615313E-07
 -1.0195000E-03   -1.2880139E-07
 -1.0190000E-03   -1.3293877E-07
 -1.0185000E-03   -1.2650504E-07
 -1.0180000E-03   -1.0801780E-07
 -1.0174999E-03   -7.6811297E-08
 -1.0169999E-03   -3.3239264E-08
 -1.0165001E-03    2.1182956E-08
 -1.0160001E-03    8.3719520E-08
 -1.0155000E-03    1.5045674E-07
 -1.0150000E-03    2.1645877E-07
 -1.0145000E-03    2.7603937E-07
 -1.0140000E-03    3.2314219E-07
 -1.0135000E-03    3.5181165E-07
 -1.0130000E-03    3.5672505E-07
 -1.0125000E-03    3.3374781E-07
 -1.0120000E-03    2.8046540E-07
 -1.0115000E-03    1.9664213E-07
 -1.0110000E-03    8.4556291E-08
 -1.0105000E-03   -5.0834771E-08
 -1.0100000E-03   -2.0193669E-07
 -1.0095000E-03   -3.5879151E-07
 -1.0090000E-03   -5.0958926E-07
 -1.0085000E-03   -6.4140443E-07
 -1.0080000E-03   -7.4112353E-07
 -1.0075000E-03   -7.9650789E-07
 -1.0070000E-03   -7.9731882E-07
 -1.0065000E-03   -7.3641655E-07
 -1.0060000E-03   -6.1073655E-07
 -1.0055000E-03   -4.2204604E-07
 -1.0050000E-03   -1.7739055E-07
 -1.0045000E-03    1.1084396E-07
 -1.0040000E-03    4.2530323E-07
 -1.0035000E-03    7.4449008E-07
 -1.0030000E-03    1.0440257E-06
 -1.0025000E-03    1.2982908E-06
 -1.0019999E-03    1.4823529E-06
 -1.0014999E-03    1.5740493E-06
 -1.0010001E-03    1.5560730E-06
 -1.0005001E-03    1.4178869E-06
 -1.0000000E-03    1.1572915E-06
 -9.9950004E-04    7.8148054E-07
 -9.9900004E-04    3.0744491E-07
 -9.9850004E-04   -2.3837487E-07
 -9.9800003E-04   -8.2123427E-07
 -9.9750003E-04   -1.4000145E-06
 -9.9700002E-04   -1.9298559E-06
 -9.9650002E-04   -2.3653465E-06
 -9.9600002E-04   -2.6640628E-06
 -9.9550001E-04   -2.7902040E-06
 -9.9500001E-04   -2.7180367E-06
 -9.9450001E-04   -2.4348506E-06
 -9.9400000E-04   -1.9431436E-06
 -9.9350000E-04   -1.2617899E-06
 -9.9299999E-04   -4.2600584E-07
 -9.9249999E-04    5.1398621E-07
 -9.9199999E-04    1.4956022E-06
 -9.9149998E-04    2.4477463E-06
 -9.9099998E-04    3.2956559E-06
 -9.9049998E-04    3.9664387E-06
 -9.8999997E-04    4.3949085E-06
 -9.8949997E-04    4.5292813E-06
 -9.8899996E-04    4.3362593E-06
 -9.8849996E-04    3.8050546E-06
 -9.8799996E-04    2.9499445E-06
 -9.8749995E-04    1.8110478E-06
 -9.8699995E-04    4.5312720E-07
 -9.8649994E-04   -1.0376316E-06
 -9.8600006E-04   -2.5587512E-06
 -9.8550005E-04   -3.9982315E-06
 -9.8500005E-04   -5.2425326E-06
 -9.8450005E-04   -6.1852188E-06
 -9.8400004E-04   -6.7356259E-06
 -9.8350004E-04   -6.8268596E-06
 -9.8300003E-04   -6.4224564E-06
 -9.8250003E-04   -5.5210899E-06
 -9.8200003E-04   -4.1588328E-06
 -9.8150002E-04   -2.4086435E-06
 -9.8100002E-04   -3.7695986E-07
 -9.8050002E-04    1.8025057E-06
 -9.8000001E-04    3.9774350E-06
 -9.7950001E-04    5.9874874E-06
 -9.7900000E-04    7.6760762E-06
 -9.7850000E-04    8.9024597E-06
 -9.7800000E-04    9.5532241E-06
 -9.7749999E-04    9.5522164E-06
 -9.7699999E-04    8.8680736E-06
 -9.7649998E-04    7.5186440E-06
 -9.7599998E-04    5.5718083E-06
 -9.7549998E-04    3.1424829E-06
 -9.7499997E-04    3.8587518E-07
 -9.7450003E-04   -2.5126308E-06
 -9.7400002E-04   -5.3502927E-06
 -9.7350002E-04   -7.9216306E-06
 -9.7300002E-04   -1.0033757E-05
 -9.7250001E-04   -1.1521246E-05
 -9.7200001E-04   -1.2259336E-05
 -9.7150001E-04   -1.2174400E-05
 -9.7100000E-04   -1.1250751E-05
 -9.7050000E-04   -9.5331761E-06
 -9.6999999E-04   -7.1248578E-06
 -9.6949999E-04   -4.1807725E-06
 -9.6899999E-04   -8.9697573E-07
 -9.6849998E-04    2.5034465E-06
 -9.6799998E-04    5.7866996E-06
 -9.6749997E-04    8.7256039E-06
 -9.6700003E-04    1.1116545E-05
 -9.6650003E-04    1.2794690E-05
 -9.6600002E-04    1.3646216E-05
 -9.6550002E-04    1.3616571E-05
 -9.6500001E-04    1.2714054E-05
 -9.6450001E-04    1.1008443E-05
 -9.6400001E-04    8.6247910E-06
 -9.6350000E-04    5.7329280E-06
 -9.6300000E-04    2.5335839E-06
 -9.6249999E-04   -7.5765729E-07
 -9.6199999E-04   -3.9271822E-06
 -9.6149999E-04   -6.7794836E-06
 -9.6099998E-04   -9.1512165E-06
 -9.6049998E-04   -1.0921975E-05
 -9.5999998E-04   -1.2020913E-05
 -9.5949997E-04   -1.2428707E-05
 -9.5900003E-04   -1.2174834E-05
 -9.5850002E-04   -1.1330571E-05
 -9.5800002E-04   -9.9985591E-06
 -9.5750001E-04   -8.3000905E-06
 -9.5700001E-04   -6.3615480E-06
 -9.5650001E-04   -4.3014688E-06
 -9.5600000E-04   -2.2196673E-06
 -9.5550000E-04   -1.8962442E-07
 -9.5500000E-04    1.7449963E-06
 -9.5449999E-04    3.5693065E-06
 -9.5399999E-04    5.2917371E-06
 -9.5349998E-04    6.9348084E-06
 -9.5299998E-04    8.5232477E-06
 -9.5249998E-04    1.0070960E-05
 -9.5199997E-04    1.1568593E-05
 -9.5150003E-04    1.2973494E-05
 -9.5100002E-04    1.4203724E-05
 -9.5050002E-04    1.5137474E-05
 -9.5000002E-04    1.5618672E-05
 -9.4950001E-04    1.5468999E-05
 -9.4900001E-04    1.4505727E-05
 -9.4850000E-04    1.2564145E-05
 -9.4800000E-04    9.5225914E-06
 -9.4750000E-04    5.3276412E-06
 -9.4699999E-04    1.6641025E-08
 -9.4649999E-04   -6.2652607E-06
 -9.4599999E-04   -1.3256241E-05
 -9.4549998E-04   -2.0579215E-05
 -9.4499998E-04   -2.7754893E-05
 -9.4449997E-04   -3.4226843E-05
 -9.4400003E-04   -3.9397797E-05
 -9.4350002E-04   -4.2675252E-05
 -9.4300002E-04   -4.3523312E-05
 -9.4250002E-04   -4.1516792E-05
 -9.4200001E-04   -3.6392918E-05
 -9.4150001E-04   -2.8095699E-05
 -9.4100001E-04   -1.6808157E-05
 -9.4050000E-04   -2.9681842E-06
 -9.4000000E-04    1.2735180E-05
 -9.3949999E-04    2.9386872E-05
 -9.3899999E-04    4.5892437E-05
 -9.3849999E-04    6.1044469E-05
 -9.3799998E-04    7.3605275E-05
 -9.3749998E-04    8.2400402E-05
 -9.3699998E-04    8.6416418E-05
 -9.3649997E-04    8.4895219E-05
 -9.3600003E-04    7.7416888E-05
 -9.3550002E-04    6.3963300E-05
 -9.3500002E-04    4.4955745E-05
 -9.3450001E-04    2.1261312E-05
 -9.3400001E-04   -5.8349906E-06
 -9.3350001E-04   -3.4692916E-05
 -9.3300000E-04   -6.3412139E-05
 -9.3250000E-04   -8.9954832E-05
 -9.3200000E-04   -1.1228806E-04
 -9.3149999E-04   -1.2853616E-04
 -9.3099999E-04   -1.3713192E-04
 -9.3049998E-04   -1.3695468E-04
 -9.2999998E-04   -1.2744372E-04
 -9.2949998E-04   -1.0867661E-04
 -9.2899997E-04   -8.1404127E-05
 -9.2850003E-04   -4.7036523E-05
 -9.2800002E-04   -7.5791904E-06
 -9.2750002E-04    3.4480247E-05
 -9.2700002E-04    7.6327531E-05
 -9.2650001E-04    1.1501055E-04
 -9.2600001E-04    1.4764865E-04
 -9.2550000E-04    1.7164764E-04
 -9.2500000E-04    1.8490455E-04
 -9.2450000E-04    1.8598589E-04
 -9.2399999E-04    1.7426492E-04
 -9.2349999E-04    1.5000542E-04
 -9.2299999E-04    1.1438328E-04
 -9.2249998E-04    6.9441536E-05
 -9.2199998E-04    1.7979306E-05
 -9.2149997E-04   -3.6619826E-05
 -9.2100003E-04   -9.0609625E-05
 -9.2050002E-04   -1.4013861E-04
 -9.2000002E-04   -1.8152528E-04
 -9.1950002E-04   -2.1153137E-04
 -9.1900001E-04   -2.2761269E-04
 -9.1850001E-04   -2.2812821E-04
 -9.1800001E-04   -2.1249056E-04
 -9.1750000E-04   -1.8124489E-04
 -9.1700000E-04   -1.3606781E-04
 -9.1649999E-04   -7.9684367E-05
 -9.1599999E-04   -1.5706384E-05
 -9.1549999E-04    5.1597963E-05
 -9.1499998E-04    1.1758866E-04
 -9.1449998E-04    1.7757290E-04
 -9.1399997E-04    2.2713662E-04
 -9.1349997E-04    2.6246443E-04
 -9.1300003E-04    2.8062492E-04
 -9.1250002E-04    2.7979989E-04
 -9.1200002E-04    2.5943955E-04
 -9.1150001E-04    2.2033167E-04
 -9.1100001E-04    1.6457780E-04
 -9.1050001E-04    9.5476702E-05
 -9.1000000E-04    1.7322003E-05
 -9.0950000E-04   -6.4872998E-05
 -9.0899999E-04   -1.4570478E-04
 -9.0849999E-04   -2.1974073E-04
 -9.0799999E-04   -2.8188713E-04
 -9.0749998E-04   -3.2773800E-04
 -9.0699998E-04   -3.5388055E-04
 -9.0649998E-04   -3.5813573E-04
 -9.0599997E-04   -3.3971702E-04
 -9.0550003E-04   -2.9929599E-04
 -9.0500002E-04   -2.3897036E-04
 -9.0450002E-04   -1.6213657E-04
 -9.0400001E-04   -7.3275893E-05
 -9.0350001E-04    2.2331165E-05
 -9.0300001E-04    1.1894228E-04
 -9.0250000E-04    2.1071945E-04
 -9.0200000E-04    2.9209891E-04
 -9.0150000E-04    3.5814015E-04
 -9.0099999E-04    4.0483091E-04
 -9.0049999E-04    4.2932856E-04
 -8.9999998E-04    4.3012333E-04
 -8.9949998E-04    4.0711381E-04
 -8.9899998E-04    3.6159225E-04
 -8.9849997E-04    2.9614253E-04
 -8.9800003E-04    2.1446025E-04
 -8.9750002E-04    1.2110867E-04
 -8.9700002E-04    2.1228945E-05
 -8.9650002E-04   -7.9775484E-05
 -8.9600001E-04   -1.7655871E-04
 -8.9550001E-04   -2.6413589E-04
 -8.9500000E-04   -3.3815196E-04
 -8.9450000E-04   -3.9510007E-04
 -8.9400000E-04   -4.3247893E-04
 -8.9349999E-04   -4.4888267E-04
 -8.9299999E-04   -4.4402183E-04
 -8.9249999E-04   -4.1867909E-04
 -8.9199998E-04   -3.7460731E-04
 -8.9149998E-04   -3.1438068E-04
 -8.9099997E-04   -2.4121274E-04
 -8.9050003E-04   -1.5875511E-04
 -8.9000002E-04   -7.0891758E-05
 -8.8950002E-04    1.8458260E-05
 -8.8900002E-04    1.0551851E-04
 -8.8850001E-04    1.8680506E-04
 -8.8800001E-04    2.5924348E-04
 -8.8750001E-04    3.2025119E-04
 -8.8700000E-04    3.6778665E-04
 -8.8650000E-04    4.0036932E-04
 -8.8599999E-04    4.1707617E-04
 -8.8549999E-04    4.1752204E-04
 -8.8499999E-04    4.0183059E-04
 -8.8449998E-04    3.7060250E-04
 -8.8399998E-04    3.2488586E-04
 -8.8349998E-04    2.6615133E-04
 -8.8299997E-04    1.9627275E-04
 -8.8250003E-04    1.1751100E-04
 -8.8200002E-04    3.2496762E-05
 -8.8150002E-04   -5.5793644E-05
 -8.8100001E-04   -1.4407648E-04
 -8.8050001E-04   -2.2881973E-04
 -8.8000001E-04   -3.0632946E-04
 -8.7950000E-04   -3.7286701E-04
 -8.7900000E-04   -4.2479878E-04
 -8.7850000E-04   -4.5877570E-04
 -8.7799999E-04   -4.7193645E-04
 -8.7749999E-04   -4.6212407E-04
 -8.7699998E-04   -4.2810175E-04
 -8.7649998E-04   -3.6975142E-04
 -8.7599998E-04   -2.8823587E-04
 -8.7549997E-04   -1.8610584E-04
 -8.7500003E-04   -6.7334018E-05
 -8.7450002E-04    6.2738756E-05
 -8.7400002E-04    1.9755535E-04
 -8.7350002E-04    3.2959611E-04
 -8.7300001E-04    4.5073128E-04
 -8.7250001E-04    5.5266049E-04
 -8.7200000E-04    6.2742003E-04
 -8.7150000E-04    6.6793029E-04
 -8.7100000E-04    6.6855008E-04
 -8.7049999E-04    6.2559877E-04
 -8.6999999E-04    5.3780642E-04
 -8.6949999E-04    4.0665129E-04
 -8.6899998E-04    2.3654824E-04
 -8.6849998E-04    3.4858618E-05
 -8.6799997E-04   -1.8829825E-04
 -8.6750003E-04   -4.2044005E-04
 -8.6700002E-04   -6.4731622E-04
 -8.6650002E-04   -8.5368141E-04
 -8.6600002E-04   -1.0242112E-03
 -8.6550001E-04   -1.1445100E-03
 -8.6500001E-04   -1.2021505E-03
 -8.6450001E-04   -1.1876747E-03
 -8.6400000E-04   -1.0954838E-03
 -8.6350000E-04   -9.2454534E-04
 -8.6299999E-04   -6.7885325E-04
 -8.6249999E-04   -3.6758688E-04
 -8.6199999E-04   -4.9333030E-06
 -8.6149998E-04    3.9044273E-04
 -8.6099998E-04    7.9627312E-04
 -8.6049997E-04    1.1878720E-03
 -8.5999997E-04    1.5395753E-03
 -8.5950003E-04    1.8263537E-03
 -8.5900002E-04    2.0255027E-03
 -8.5850002E-04    2.1182967E-03
 -8.5800001E-04    2.0914939E-03
 -8.5750001E-04    1.9385755E-03
 -8.5700001E-04    1.6606180E-03
 -8.5650000E-04    1.2667133E-03
 -8.5600000E-04    7.7387871E-04
 -8.5549999E-04    2.0643068E-04
 -8.5499999E-04   -4.0516898E-04
 -8.5449999E-04   -1.0259462E-03
 -8.5399998E-04   -1.6184452E-03
 -8.5349998E-04   -2.1450378E-03
 -8.5299998E-04   -2.5703732E-03
 -8.5249997E-04   -2.8638039E-03
 -8.5200003E-04   -3.0016222E-03
 -8.5150002E-04   -2.9689455E-03
 -8.5100002E-04   -2.7611011E-03
 -8.5050002E-04   -2.3843911E-03
 -8.5000001E-04   -1.8561572E-03
 -8.4950001E-04   -1.2041049E-03
 -8.4900000E-04   -4.6490214E-04
 -8.4850000E-04    3.1788438E-04
 -8.4800000E-04    1.0964042E-03
 -8.4749999E-04    1.8215296E-03
 -8.4699999E-04    2.4460666E-03
 -8.4649998E-04    2.9279559E-03
 -8.4599998E-04    3.2332430E-03
 -8.4549998E-04    3.3386063E-03
 -8.4499997E-04    3.2332521E-03
 -8.4450003E-04    2.9200232E-03
 -8.4400002E-04    2.4156182E-03
 -8.4350002E-04    1.7498757E-03
 -8.4300002E-04    9.6414273E-04
 -8.4250001E-04    1.0881014E-04
 -8.4200001E-04   -7.5984071E-04
 -8.4150000E-04   -1.5832845E-03
 -8.4100000E-04   -2.3046543E-03
 -8.4050000E-04   -2.8726391E-03
 -8.3999999E-04   -3.2451074E-03
 -8.3949999E-04   -3.3922021E-03
 -8.3899999E-04   -3.2986787E-03
 -8.3849998E-04   -2.9653078E-03
 -8.3799998E-04   -2.4092242E-03
 -8.3749997E-04   -1.6631706E-03
 -8.3700003E-04   -7.7366608E-04
 -8.3650002E-04    2.0180253E-04
 -8.3600002E-04    1.1983938E-03
 -8.3550002E-04    2.1481004E-03
 -8.3500001E-04    2.9842418E-03
 -8.3450001E-04    3.6459593E-03
 -8.3400001E-04    4.0824125E-03
 -8.3350000E-04    4.2563872E-03
 -8.3300000E-04    4.1470635E-03
 -8.3249999E-04    3.7517443E-03
 -8.3199999E-04    3.0864151E-03
 -8.3149999E-04    2.1850809E-03
 -8.3099998E-04    1.0979080E-03
 -8.3049998E-04   -1.1171703E-04
 -8.2999998E-04   -1.3710313E-03
 -8.2949997E-04   -2.6023972E-03
 -8.2900003E-04   -3.7281727E-03
 -8.2850002E-04   -4.6756347E-03
 -8.2800002E-04   -5.3816359E-03
 -8.2750001E-04   -5.7966923E-03
 -8.2700001E-04   -5.8882376E-03
 -8.2650001E-04   -5.6428313E-03
 -8.2600000E-04   -5.0671799E-03
 -8.2550000E-04   -4.1879052E-03
 -8.2500000E-04   -3.0500768E-03
 -8.2449999E-04   -1.7146044E-03
 -8.2399999E-04   -2.5465759E-04
 -8.2349998E-04    1.2486590E-03
 -8.2299998E-04    2.7111019E-03
 -8.2249998E-04    4.0502567E-03
 -8.2199997E-04    5.1903734E-03
 -8.2150003E-04    6.0667736E-03
 -8.2100002E-04    6.6295704E-03
 -8.2050002E-04    6.8464871E-03
 -8.2000002E-04    6.7046168E-03
 -8.1950001E-04    6.2110405E-03
 -8.1900001E-04    5.3922855E-03
 -8.1850000E-04    4.2926776E-03
 -8.1800000E-04    2.9717074E-03
 -8.1750000E-04    1.5005847E-03
 -8.1699999E-04   -4.1806372E-05
 -8.1649999E-04   -1.5733042E-03
 -8.1599999E-04   -3.0129659E-03
 -8.1549998E-04   -4.2854082E-03
 -8.1499998E-04   -5.3247614E-03
 -8.1449997E-04   -6.0780328E-03
 -8.1400003E-04   -6.5077147E-03
 -8.1350002E-04   -6.5935259E-03
 -8.1300002E-04   -6.3332189E-03
 -8.1250002E-04   -5.7424465E-03
 -8.1200001E-04   -4.8537222E-03
 -8.1150001E-04   -3.7145563E-03
 -8.1100001E-04   -2.3848899E-03
 -8.1050000E-04   -9.3397114E-04
 -8.1000000E-04    5.6315807E-04
 -8.0949999E-04    2.0293873E-03
 -8.0899999E-04    3.3892989E-03
 -8.0849999E-04    4.5727943E-03
 -8.0799998E-04    5.5184267E-03
 -8.0749998E-04    6.1763059E-03
 -8.0699997E-04    6.5104594E-03
 -8.0649997E-04    6.5005580E-03
 -8.0600003E-04    6.1429478E-03
 -8.0550002E-04    5.4509528E-03
 -8.0500002E-04    4.4544367E-03
 -8.0450001E-04    3.1986479E-03
 -8.0400001E-04    1.7423825E-03
 -8.0350001E-04    1.5553739E-04
 -8.0300000E-04   -1.4838653E-03
 -8.0250000E-04   -3.0930717E-03
 -8.0200000E-04   -4.5882873E-03
 -8.0149999E-04   -5.8885245E-03
 -8.0099999E-04   -6.9194539E-03
 -8.0049998E-04   -7.6171043E-03
 -7.9999998E-04   -7.9312483E-03
 -7.9949998E-04   -7.8283045E-03
 -7.9899997E-04   -7.2936174E-03
 -7.9850003E-04   -6.3329646E-03
 -7.9800002E-04   -4.9731899E-03
 -7.9750002E-04   -3.2618656E-03
 -7.9700002E-04   -1.2659514E-03
 -7.9650001E-04    9.3055912E-04
 -7.9600001E-04    3.2299554E-03
 -7.9550000E-04    5.5249911E-03
 -7.9500000E-04    7.7037802E-03
 -7.9450000E-04    9.6552083E-03
 -7.9399999E-04    1.1274618E-02
 -7.9349999E-04    1.2469498E-02
 -7.9299998E-04    1.3164870E-02
 -7.9249998E-04    1.3308088E-02
 -7.9199998E-04    1.2872727E-02
 -7.9149997E-04    1.1861327E-02
 -7.9100003E-04    1.0306750E-02
 -7.9050002E-04    8.2719903E-03
 -7.9000002E-04    5.8483505E-03
 -7.8950002E-04    3.1519881E-03
 -7.8900001E-04    3.1891372E-04
 -7.8850001E-04   -2.5013697E-03
 -7.8800000E-04   -5.1533147E-03
 -7.8750000E-04   -7.4835108E-03
 -7.8700000E-04   -9.3491785E-03
 -7.8649999E-04   -1.0626517E-02
 -7.8599999E-04   -1.1218415E-02
 -7.8549999E-04   -1.1061056E-02
 -7.8499998E-04   -1.0128980E-02
 -7.8449998E-04   -8.4382184E-03
 -7.8399997E-04   -6.0472293E-03
 -7.8350003E-04   -3.0554575E-03
 -7.8300002E-04    4.0051178E-04
 -7.8250002E-04    4.1531064E-03
 -7.8200002E-04    8.0119772E-03
 -7.8150001E-04    1.1773889E-02
 -7.8100001E-04    1.5233782E-02
 -7.8050001E-04    1.8196411E-02
 -7.8000000E-04    2.0487901E-02
 -7.7950000E-04    2.1966524E-02
 -7.7899999E-04    2.2532040E-02
 -7.7849999E-04    2.2132959E-02
 -7.7799999E-04    2.0771230E-02
 -7.7749998E-04    1.8503953E-02
 -7.7699998E-04    1.5441911E-02
 -7.7649998E-04    1.1744872E-02
 -7.7599997E-04    7.6138298E-03
 -7.7550003E-04    3.2805521E-03
 -7.7500002E-04   -1.0050475E-03
 -7.7450002E-04   -4.9890080E-03
 -7.7400001E-04   -8.4280847E-03
 -7.7350001E-04   -1.1104301E-02
 -7.7300001E-04   -1.2838392E-02
 -7.7250000E-04   -1.3501290E-02
 -7.7200000E-04   -1.3022881E-02
 -7.7150000E-04   -1.1397423E-02
 -7.7099999E-04   -8.6852098E-03
 -7.7049999E-04   -5.0102696E-03
 -7.6999998E-04   -5.5415649E-04
 -7.6949998E-04    4.4538816E-03
 -7.6899998E-04    9.7498186E-03
 -7.6849997E-04    1.5050113E-02
 -7.6800003E-04    2.0068416E-02
 -7.6750002E-04    2.4532691E-02
 -7.6700002E-04    2.8201692E-02
 -7.6650002E-04    3.0879753E-02
 -7.6600001E-04    3.2428905E-02
 -7.6550001E-04    3.2777555E-02
 -7.6500000E-04    3.1925097E-02
 -7.6450000E-04    2.9942123E-02
 -7.6400000E-04    2.6966184E-02
 -7.6349999E-04    2.3193311E-02
 -7.6299999E-04    1.8865809E-02
 -7.6249999E-04    1.4257081E-02
 -7.6199998E-04    9.6544428E-03
 -7.6149998E-04    5.3410241E-03
 -7.6099997E-04    1.5779303E-03
 -7.6050003E-04   -1.4121714E-03
 -7.6000002E-04   -3.4589579E-03
 -7.5950002E-04   -4.4549415E-03
 -7.5900002E-04   -4.3618367E-03
 -7.5850001E-04   -3.2123870E-03
 -7.5800001E-04   -1.1075197E-03
 -7.5750001E-04    1.7909750E-03
 -7.5700000E-04    5.2717561E-03
 -7.5650000E-04    9.0884743E-03
 -7.5599999E-04    1.2976565E-02
 -7.5549999E-04    1.6671171E-02
 -7.5499999E-04    1.9924976E-02
 -7.5449998E-04    2.2524757E-02
 -7.5399998E-04    2.4305554E-02
 -7.5349997E-04    2.5161494E-02
 -7.5299997E-04    2.5052570E-02
 -7.5250003E-04    2.4006931E-02
 -7.5200002E-04    2.2118557E-02
 -7.5150002E-04    1.9540491E-02
 -7.5100001E-04    1.6474135E-02
 -7.5050001E-04    1.3155359E-02
 -7.5000001E-04    9.8383548E-03
 -7.4950000E-04    6.7783929E-03
 -7.4900000E-04    4.2146156E-03
 -7.4850000E-04    2.3540426E-03
 -7.4799999E-04    1.3578513E-03
 -7.4749999E-04    1.3308213E-03
 -7.4699998E-04    2.3146162E-03
 -7.4649998E-04    4.2852997E-03
 -7.4599998E-04    7.1551888E-03