 -1.2000001E-03    1.0000000E-24
 -1.1995001E-03    1.0000000E-24
 -1.1990000E-03    1.0000000E-24
 -1.1985000E-03    1.0000000E-24
 -1.1980000E-03    1.0000000E-24
 -1.1975000E-03    1.0000000E-24
 -1.1970000E-03    1.0000000E-24
 -1.1965000E-03    1.0000000E-24
 -1.1960000E-03    1.0000001E-24
 -1.1955000E-03    1.0000001E-24
 -1.1950000E-03    1.0000001E-24
 -1.1945000E-03    1.0000001E-24
 -1.1940000E-03    1.0000002E-24
 -1.1935000E-03    1.0000005E-24
 -1.1930000E-03    9.9999893E-25
 -1.1925000E-03    1.0000050E-24
 -1.1920000E-03    1.0000117E-24
 -1.1915000E-03    1.0000189E-24
 -1.1910000E-03    9.9978220E-25
 -1.1905000E-03    9.9856626E-25
 -1.1900000E-03    9.9739530E-25
 -1.1895000E-03    9.9674380E-25
 -1.1890000E-03    9.9618243E-25
 -1.1885000E-03    9.8056199E-25
 -1.1880000E-03    1.0215606E-24
 -1.1875000E-03    1.1280911E-24
 -1.1870000E-03    1.7068558E-24
 -1.1865000E-03    2.2509345E-24
 -1.1860000E-03    2.4866570E-24
 -1.1854999E-03    2.5065302E-24
 -1.1849999E-03    2.8348476E-24
 -1.1845001E-03    3.7799623E-24
 -1.1840001E-03    5.2801817E-24
 -1.1835000E-03    8.3841715E-24
 -1.1830000E-03    8.7743555E-24
 -1.1825000E-03    8.6713997E-24
 -1.1820000E-03    7.0880383E-24
 -1.1815000E-03    7.4782838E-24
 -1.1810000E-03    1.1815576E-23
 -1.1805000E-03   -2.8255417E-23
 -1.1800000E-03   -2.2819898E-22
 -1.1795000E-03   -5.8209448E-22
 -1.1790000E-03   -9.4289452E-22
 -1.1785000E-03   -1.1985895E-21
 -1.1780000E-03   -1.4917718E-21
 -1.1775000E-03   -1.7533422E-21
 -1.1770000E-03   -2.0780792E-21
 -1.1765000E-03   -2.5606735E-21
 -1.1760000E-03   -2.5380214E-21
 -1.1755000E-03   -2.5153898E-21
 -1.1750000E-03   -2.2401483E-21
 -1.1745000E-03   -3.8597584E-21
 -1.1740000E-03   -7.6268460E-21
 -1.1735000E-03   -7.6043530E-21
 -1.1730000E-03   -1.8975418E-21
 -1.1725000E-03    5.1987587E-21
 -1.1720000E-03    4.9053979E-21
 -1.1715000E-03    2.5277472E-21
 -1.1710000E-03   -1.0460589E-20
 -1.1704999E-03   -1.4859259E-20
 -1.1699999E-03   -2.9363225E-20
 -1.1695001E-03   -5.2962252E-20
 -1.1690001E-03   -6.8477275E-20
 -1.1685000E-03   -2.1338382E-20
 -1.1680000E-03   -2.4726892E-20
 -1.1675000E-03   -1.2108606E-19
 -1.1670000E-03   -2.2148686E-19
 -1.1665000E-03   -3.8252140E-19
 -1.1660000E-03   -5.6376526E-19
 -1.1655000E-03   -7.9957873E-19
 -1.1650000E-03   -1.0200387E-18
 -1.1645000E-03   -1.1677440E-18
 -1.1640000E-03   -1.3397082E-18
 -1.1635000E-03   -1.4631667E-18
 -1.1630000E-03   -1.8776679E-18
 -1.1625000E-03   -2.5185319E-18
 -1.1620000E-03   -3.2240717E-18
 -1.1615000E-03   -3.9619503E-18
 -1.1610000E-03   -2.7918988E-18
 -1.1605000E-03   -5.8704894E-19
 -1.1600000E-03    3.3316914E-18
 -1.1595000E-03    5.8922424E-18
 -1.1590000E-03    7.5796694E-18
 -1.1585000E-03    1.2137099E-17
 -1.1580000E-03    1.5401043E-17
 -1.1575000E-03    1.8988361E-17
 -1.1570000E-03    1.9859346E-17
 -1.1565000E-03    2.3317317E-17
 -1.1560000E-03    2.4188230E-17
 -1.1555000E-03    2.2472084E-17
 -1.1549999E-03    1.3770995E-17
 -1.1544999E-03   -3.2085292E-18
 -1.1540001E-03   -6.7355502E-18
 -1.1535001E-03    8.6168273E-19
 -1.1530000E-03    1.6090666E-17
 -1.1525000E-03    4.3975879E-17
 -1.1520000E-03    6.7721826E-17
 -1.1515000E-03    1.0336804E-16
 -1.1510000E-03    1.2400938E-16
 -1.1505000E-03    1.6017274E-16
 -1.1500000E-03    1.8598783E-16
 -1.1495000E-03    2.0973321E-16
 -1.1490000E-03    2.2002546E-16
 -1.1485000E-03    1.9202956E-16
 -1.1480000E-03    1.2471088E-16
 -1.1475000E-03    6.6705472E-17
 -1.1470000E-03   -5.2696889E-18
 -1.1465000E-03    6.0571665E-18
 -1.1460000E-03    6.2916072E-17
 -1.1455000E-03    1.3633285E-16
 -1.1450000E-03    2.3251653E-16
 -1.1445000E-03    4.3632152E-16
 -1.1440000E-03    6.7738029E-16
 -1.1435000E-03    9.8052767E-16
 -1.1430000E-03    1.1222451E-15
 -1.1425000E-03    1.1480638E-15
 -1.1420000E-03    1.0993771E-15
 -1.1415000E-03    9.2858306E-16
 -1.1410000E-03    5.1984821E-16
 -1.1405000E-03    1.8147932E-16
 -1.1399999E-03   -2.0242171E-16
 -1.1394999E-03   -6.7738612E-16
 -1.1390001E-03   -8.7088513E-16
 -1.1385001E-03   -8.4914746E-16
 -1.1380001E-03   -7.2807072E-16
 -1.1375000E-03   -5.2421175E-16
 -1.1370000E-03    2.7569437E-16
 -1.1365000E-03    1.6550920E-15
 -1.1360000E-03    3.3739046E-15
 -1.1355000E-03    5.4476560E-15
 -1.1350000E-03    7.5048525E-15
 -1.1345000E-03    8.5024100E-15
 -1.1340000E-03    9.4999709E-15
 -1.1335000E-03    1.0696224E-14
 -1.1330000E-03    1.1627573E-14
 -1.1325000E-03    1.2227790E-14
 -1.1320000E-03    1.0642496E-14
 -1.1315000E-03    7.8651058E-15
 -1.1310000E-03    4.5247661E-15
 -1.1305000E-03    3.5657535E-16
 -1.1300000E-03   -5.6742699E-15
 -1.1295000E-03   -1.1705129E-14
 -1.1290000E-03   -1.8166487E-14
 -1.1285000E-03   -2.4627859E-14
 -1.1280000E-03   -3.0162061E-14
 -1.1275000E-03   -3.5961167E-14
 -1.1270000E-03   -3.7124333E-14
 -1.1265000E-03   -3.6300668E-14
 -1.1260000E-03   -3.5609448E-14
 -1.1255000E-03   -3.1606831E-14
 -1.1250000E-03   -2.3498071E-14
 -1.1244999E-03   -9.6937144E-15
 -1.1239999E-03    3.8333641E-15
 -1.1235001E-03    1.8949943E-14
 -1.1230001E-03    3.5788467E-14
 -1.1225000E-03    5.1302499E-14
 -1.1220000E-03    6.5227121E-14
 -1.1215000E-03    7.4913180E-14
 -1.1210000E-03    7.1883559E-14
 -1.1205000E-03    5.9847004E-14
 -1.1200000E-03    4.8340262E-14
 -1.1195000E-03    3.6303639E-14
 -1.1190000E-03    1.7379188E-14
 -1.1185000E-03   -6.7111551E-15
 -1.1180000E-03   -3.0801672E-14
 -1.1175000E-03   -6.6548390E-14
 -1.1170000E-03   -1.0176541E-13
 -1.1165000E-03   -1.2956507E-13
 -1.1160000E-03   -1.4464910E-13
 -1.1155000E-03   -1.3642109E-13
 -1.1150000E-03   -1.1017908E-13
 -1.1145000E-03   -6.8042353E-14
 -1.1140000E-03   -1.5309074E-14
 -1.1135000E-03    4.6431324E-14
 -1.1130000E-03    9.9164851E-14
 -1.1125000E-03    1.4481224E-13
 -1.1120000E-03    1.8436678E-13
 -1.1115000E-03    2.1120573E-13
 -1.1110000E-03    2.1261339E-13
 -1.1105000E-03    2.0130555E-13
 -1.1100000E-03    1.7516290E-13
 -1.1094999E-03    1.2570821E-13
 -1.1089999E-03    5.0822167E-14
 -1.1084999E-03   -1.9825253E-14
 -1.1080001E-03   -6.9279963E-14
 -1.1075001E-03   -9.2243602E-14
 -1.1070000E-03   -6.0635701E-14
 -1.1065000E-03    1.4417587E-14
 -1.1060000E-03    1.0324613E-13
 -1.1055000E-03    2.3022155E-13
 -1.1050000E-03    4.0382110E-13
 -1.1045000E-03    5.1808059E-13
 -1.1040000E-03    5.6876156E-13
 -1.1035000E-03    6.1944238E-13
 -1.1030000E-03    5.6839754E-13
 -1.1025000E-03    4.5165466E-13
 -1.1020000E-03    2.7345211E-13
 -1.1015000E-03    6.9817646E-14
 -1.1010000E-03   -1.7328908E-13
 -1.1005000E-03   -4.6302068E-13
 -1.1000000E-03   -7.9725766E-13
 -1.0995000E-03   -1.1781187E-12
 -1.0990000E-03   -1.4742086E-12
 -1.0985000E-03   -1.6261867E-12
 -1.0980000E-03   -1.5238510E-12
 -1.0975000E-03   -1.2350176E-12
 -1.0970000E-03   -6.6219952E-13
 -1.0965000E-03    9.7116651E-14
 -1.0960000E-03    1.0450497E-12
 -1.0955000E-03    1.9789431E-12
 -1.0950000E-03    2.8111120E-12
 -1.0945000E-03    3.4779775E-12
 -1.0939999E-03    3.8778139E-12
 -1.0934999E-03    4.0741997E-12
 -1.0930001E-03    4.0417036E-12
 -1.0925001E-03    3.8311880E-12
 -1.0920000E-03    3.4511291E-12
 -1.0915000E-03    2.5285329E-12
 -1.0910000E-03    1.1990334E-12
 -1.0905000E-03   -4.8226852E-13
 -1.0900000E-03   -2.2992060E-12
 -1.0895000E-03   -4.2051549E-12
 -1.0890000E-03   -5.9288473E-12
 -1.0885000E-03   -7.4406132E-12
 -1.0880000E-03   -8.4861380E-12
 -1.0875000E-03   -8.9636952E-12
 -1.0870000E-03   -8.8054676E-12
 -1.0865000E-03   -8.2318596E-12
 -1.0860000E-03   -7.2174398E-12
 -1.0855000E-03   -5.7367761E-12
 -1.0850000E-03   -3.5207189E-12
 -1.0845000E-03   -1.0768359E-12
 -1.0840000E-03    1.3967186E-12
 -1.0835000E-03    3.5311894E-12
 -1.0830000E-03    5.4622118E-12
 -1.0825000E-03    6.8252695E-12
 -1.0820000E-03    7.9594465E-12
 -1.0815000E-03    8.7460612E-12
 -1.0810000E-03    9.1681610E-12
 -1.0805000E-03    9.3232297E-12
 -1.0800000E-03    9.3559049E-12
 -1.0795000E-03    9.4097707E-12
 -1.0790000E-03    9.4975399E-12
 -1.0784999E-03    1.0144796E-11
 -1.0779999E-03    1.0385145E-11
 -1.0775001E-03    1.0523763E-11
 -1.0770001E-03    9.9333432E-12
 -1.0765000E-03    8.9360160E-12
 -1.0760000E-03    7.6335067E-12
 -1.0755000E-03    5.9598572E-12
 -1.0750000E-03    3.0231173E-12
 -1.0745000E-03    2.5592145E-13
 -1.0740000E-03   -3.1894442E-12
 -1.0735000E-03   -6.1600859E-12
 -1.0730000E-03   -8.6899160E-12
 -1.0725000E-03   -1.1118016E-11
 -1.0720000E-03   -1.3885198E-11
 -1.0715000E-03   -1.5465577E-11
 -1.0710000E-03   -1.5994785E-11
 -1.0705000E-03   -1.6498551E-11
 -1.0700000E-03   -1.6120685E-11
 -1.0695000E-03   -1.3064039E-11
 -1.0690000E-03   -7.3964342E-12
 -1.0685000E-03   -9.8283317E-13
 -1.0680000E-03    8.5503609E-12
 -1.0675000E-03    1.9507718E-11
 -1.0670000E-03    3.2703042E-11
 -1.0665000E-03    4.6237458E-11
 -1.0660000E-03    5.8958068E-11
 -1.0655000E-03    6.9372875E-11
 -1.0650000E-03    7.6685026E-11
 -1.0645000E-03    7.8029257E-11
 -1.0640000E-03    7.3609001E-11
 -1.0634999E-03    6.3627728E-11
 -1.0629999E-03    4.7542897E-11
 -1.0625001E-03    2.6575213E-11
 -1.0620001E-03    1.5384910E-12
 -1.0615001E-03   -2.6617824E-11
 -1.0610000E-03   -5.4095964E-11
 -1.0605000E-03   -8.2252261E-11
 -1.0600000E-03   -1.0586481E-10
 -1.0595000E-03   -1.2228872E-10
 -1.0590000E-03   -1.3311344E-10
 -1.0585000E-03   -1.3383335E-10
 -1.0580000E-03   -1.2302431E-10
 -1.0575000E-03   -1.0272082E-10
 -1.0570000E-03   -7.5093029E-11
 -1.0565000E-03   -3.9869687E-11
 -1.0560000E-03    3.7629947E-12
 -1.0555000E-03    5.0108369E-11
 -1.0550000E-03    9.2384704E-11
 -1.0545000E-03    1.3384721E-10
 -1.0540000E-03    1.6269566E-10
 -1.0535000E-03    1.7621739E-10
 -1.0530000E-03    1.6912266E-10
 -1.0525000E-03    1.4154709E-10
 -1.0520000E-03    9.7966628E-11
 -1.0515000E-03    3.8381232E-11
 -1.0510000E-03   -2.9071025E-11
 -1.0505000E-03   -9.6523352E-11
 -1.0500000E-03   -1.6017798E-10
 -1.0495000E-03   -2.1352441E-10
 -1.0490000E-03   -2.4788202E-10
 -1.0485000E-03   -2.5809671E-10
 -1.0479999E-03   -2.5339156E-10
 -1.0474999E-03   -2.2656094E-10
 -1.0470001E-03   -1.7382405E-10
 -1.0465001E-03   -9.3688925E-11
 -1.0460000E-03    4.6213038E-12
 -1.0455000E-03    1.0998458E-10
 -1.0450000E-03    2.1643298E-10
 -1.0445000E-03    3.2559408E-10
 -1.0440000E-03    4.1739401E-10
 -1.0435000E-03    4.9346033E-10
 -1.0430000E-03    5.3154908E-10
 -1.0425000E-03    5.2677734E-10
 -1.0420000E-03    4.8823257E-10
 -1.0415000E-03    4.0859055E-10
 -1.0410000E-03    2.8771563E-10
 -1.0405000E-03    1.2994811E-10
 -1.0400000E-03   -4.5180682E-11
 -1.0395000E-03   -2.3278786E-10
 -1.0390000E-03   -4.1442719E-10
 -1.0385000E-03   -5.7490762E-10
 -1.0380000E-03   -7.0554856E-10
 -1.0375000E-03   -7.9983947E-10
 -1.0370000E-03   -8.4638713E-10
 -1.0365000E-03   -8.3339141E-10
 -1.0360000E-03   -7.7116036E-10
 -1.0355000E-03   -6.6118599E-10
 -1.0350000E-03   -5.0292581E-10
 -1.0345000E-03   -2.9366704E-10
 -1.0340000E-03   -6.5419371E-11
 -1.0335000E-03    1.8127456E-10
 -1.0329999E-03    4.2688353E-10
 -1.0324999E-03    6.5784400E-10
 -1.0319999E-03    8.4865681E-10
 -1.0315001E-03    9.9715181E-10
 -1.0310001E-03    1.0808137E-09
 -1.0305000E-03    1.1109001E-09
 -1.0300000E-03    1.0703211E-09
 -1.0295000E-03    9.5731334E-10
 -1.0290000E-03    7.7648843E-10
 -1.0285000E-03    5.5171795E-10
 -1.0280000E-03    2.6509825E-10
 -1.0275000E-03   -2.9117025E-11
 -1.0270000E-03   -3.4394879E-10
 -1.0265000E-03   -6.4141953E-10
 -1.0260000E-03   -9.0525315E-10
 -1.0255000E-03   -1.1218861E-09
 -1.0250000E-03   -1.2859609E-09
 -1.0245000E-03   -1.3767932E-09
 -1.0240000E-03   -1.3913992E-09
 -1.0235000E-03   -1.3414434E-09
 -1.0230000E-03   -1.2323510E-09
 -1.0225000E-03   -1.0809406E-09
 -1.0220000E-03   -8.9914798E-10
 -1.0215000E-03   -6.6906947E-10
 -1.0210000E-03   -3.7985426E-10
 -1.0205000E-03   -7.6532856E-11
 -1.0200000E-03    2.3574065E-10
 -1.0195000E-03    5.6622323E-10
 -1.0190000E-03    8.7500451E-10
 -1.0185000E-03    1.1664247E-09
 -1.0180000E-03    1.4144420E-09
 -1.0174999E-03    1.6158013E-09
 -1.0169999E-03    1.7607367E-09
 -1.0165001E-03    1.8242915E-09
 -1.0160001E-03    1.8184015E-09
 -1.0155000E-03    1.7153970E-09
 -1.0150000E-03    1.4938480E-09
 -1.0145000E-03    1.1737605E-09
 -1.0140000E-03    7.4326634E-10
 -1.0135000E-03    2.3139134E-10
 -1.0130000E-03   -3.1954669E-10
 -1.0125000E-03   -8.8459096E-10
 -1.0120000E-03   -1.4105730E-09
 -1.0115000E-03   -1.8595149E-09
 -1.0110000E-03   -2.1912692E-09
 -1.0105000E-03   -2.3700277E-09
 -1.0100000E-03   -2.3686639E-09
 -1.0095000E-03   -2.1736144E-09
 -1.0090000E-03   -1.8247551E-09
 -1.0085000E-03   -1.3142194E-09
 -1.0080000E-03   -6.7835704E-10
 -1.0075000E-03    5.6247618E-11
 -1.0070000E-03    8.3425578E-10
 -1.0065000E-03    1.5515005E-09
 -1.0060000E-03    2.1732591E-09
 -1.0055000E-03    2.6235769E-09
 -1.0050000E-03    2.8340934E-09
 -1.0045000E-03    2.8015541E-09
 -1.0040000E-03    2.5129370E-09
 -1.0035000E-03    1.9964543E-09
 -1.0030000E-03    1.2889979E-09
 -1.0025000E-03    4.8171400E-10
 -1.0019999E-03   -4.1237674E-10
 -1.0014999E-03   -1.2608956E-09
 -1.0010001E-03   -2.0486515E-09
 -1.0005001E-03   -2.7322415E-09
 -1.0000000E-03   -3.1836267E-09
 -9.9950004E-04   -3.3811058E-09
 -9.9900004E-04   -3.2769347E-09
 -9.9850004E-04   -2.9145164E-09
 -9.9800003E-04   -2.2764894E-09
 -9.9750003E-04   -1.4127667E-09
 -9.9700002E-04   -3.7326137E-10
 -9.9650002E-04    8.1924029E-10
 -9.9600002E-04    2.1050595E-09
 -9.9550001E-04    3.3474774E-09
 -9.9500001E-04    4.4596882E-09
 -9.9450001E-04    5.4026290E-09
 -9.9400000E-04    6.0504313E-09
 -9.9350000E-04    6.3705423E-09
 -9.9299999E-04    6.3651324E-09
 -9.9249999E-04    6.0472218E-09
 -9.9199999E-04    5.4124696E-09
 -9.9149998E-04    4.5126884E-09
 -9.9099998E-04    3.3611687E-09
 -9.9049998E-04    1.9731019E-09
 -9.8999997E-04    4.4831433E-10
 -9.8949997E-04   -1.1155377E-09
 -9.8899996E-04   -2.5925861E-09
 -9.8849996E-04   -3.9394275E-09
 -9.8799996E-04   -5.0345337E-09
 -9.8749995E-04   -5.9473488E-09
 -9.8699995E-04   -6.5845569E-09
 -9.8649994E-04   -6.9070949E-09
 -9.8600006E-04   -6.8607076E-09
 -9.8550005E-04   -6.4861960E-09
 -9.8500005E-04   -5.8414997E-09
 -9.8450005E-04   -4.9081725E-09
 -9.8400004E-04   -3.6710226E-09
 -9.8350004E-04   -2.1604325E-09
 -9.8300003E-04   -4.9358950E-10
 -9.8250003E-04    1.2774229E-09
 -9.8200003E-04    2.9920137E-09
 -9.8150002E-04    4.5807376E-09
 -9.8100002E-04    5.9524483E-09
 -9.8050002E-04    6.9877868E-09
 -9.8000001E-04    7.6910931E-09
 -9.7950001E-04    7.9592848E-09
 -9.7900000E-04    7.9572908E-09
 -9.7850000E-04    7.5690094E-09
 -9.7800000E-04    6.7770785E-09
 -9.7749999E-04    5.5728178E-09
 -9.7699999E-04    3.9779287E-09
 -9.7649998E-04    2.0705357E-09
 -9.7599998E-04    1.9911397E-11
 -9.7549998E-04   -2.1088400E-09
 -9.7499997E-04   -4.3026969E-09
 -9.7450003E-04   -6.5442975E-09
 -9.7400002E-04   -8.4712282E-09
 -9.7350002E-04   -1.0071551E-08
 -9.7300002E-04   -1.1204747E-08
 -9.7250001E-04   -1.1782386E-08
 -9.7200001E-04   -1.1804465E-08
 -9.7150001E-04   -1.1257964E-08
 -9.7100000E-04   -1.0121180E-08
 -9.7050000E-04   -8.3724139E-09
 -9.6999999E-04   -6.0897878E-09
 -9.6949999E-04   -3.4295540E-09
 -9.6899999E-04   -5.3928184E-10
 -9.6849998E-04    2.5463054E-09
 -9.6799998E-04    5.6774669E-09
 -9.6749997E-04    8.4234291E-09
 -9.6700003E-04    1.0928438E-08
 -9.6650003E-04    1.2774806E-08
 -9.6600002E-04    1.3874642E-08
 -9.6550002E-04    1.3954507E-08
 -9.6500001E-04    1.3025252E-08
 -9.6450001E-04    1.0958836E-08
 -9.6400001E-04    7.9310416E-09
 -9.6350000E-04    4.2239860E-09
 -9.6300000E-04    1.0676856E-10
 -9.6249999E-04   -4.0495158E-09
 -9.6199999E-04   -7.9529823E-09
 -9.6149999E-04   -1.1703727E-08
 -9.6099998E-04   -1.4462174E-08
 -9.6049998E-04   -1.6461613E-08
 -9.5999998E-04   -1.7313043E-08
 -9.5949997E-04   -1.6730548E-08
 -9.5900003E-04   -1.4759833E-08
 -9.5850002E-04   -1.1654127E-08
 -9.5800002E-04   -7.5561148E-09
 -9.5750001E-04   -2.7690752E-09
 -9.5700001E-04    2.2176241E-09
 -9.5650001E-04    7.1392248E-09
 -9.5600000E-04    1.1542165E-08
 -9.5550000E-04    1.5014118E-08
 -9.5500000E-04    1.7422700E-08
 -9.5449999E-04    1.8662659E-08
 -9.5399999E-04    1.8882918E-08
 -9.5349998E-04    1.7729471E-08
 -9.5299998E-04    1.5428011E-08
 -9.5249998E-04    1.1998072E-08
 -9.5199997E-04    7.8215949E-09
 -9.5150003E-04    3.2110814E-09
 -9.5100002E-04   -1.6511744E-09
 -9.5050002E-04   -6.2443366E-09
 -9.5000002E-04   -1.0273265E-08
 -9.4950001E-04   -1.3512261E-08
 -9.4900001E-04   -1.5570697E-08
 -9.4850000E-04   -1.6361769E-08
 -9.4800000E-04   -1.6100316E-08
 -9.4750000E-04   -1.4767894E-08
 -9.4699999E-04   -1.2439370E-08
 -9.4649999E-04   -9.0040659E-09
 -9.4599999E-04   -5.3343818E-09
 -9.4549998E-04   -1.7775402E-09
 -9.4499998E-04    1.5188892E-09
 -9.4449997E-04    4.2163628E-09
 -9.4400003E-04    6.0805037E-09
 -9.4350002E-04    6.9290169E-09
 -9.4300002E-04    6.5882904E-09
 -9.4250002E-04    4.9715165E-09
 -9.4200001E-04    2.3304307E-09
 -9.4150001E-04   -1.1982487E-09
 -9.4100001E-04   -5.6535856E-09
 -9.4050000E-04   -1.0833756E-08
 -9.4000000E-04   -1.6456642E-08
 -9.3949999E-04   -2.1576060E-08
 -9.3899999E-04   -2.5844788E-08
 -9.3849999E-04   -2.9193377E-08
 -9.3799998E-04   -3.1205158E-08
 -9.3749998E-04   -3.1949575E-08
 -9.3699998E-04   -3.1357182E-08
 -9.3649997E-04   -2.9193602E-08
 -9.3600003E-04   -2.5510916E-08
 -9.3550002E-04   -2.0456692E-08
 -9.3500002E-04   -1.4359708E-08
 -9.3450001E-04   -7.9371931E-09
 -9.3400001E-04   -1.7577292E-09
 -9.3350001E-04    3.9877119E-09
 -9.3300000E-04    9.0213517E-09
 -9.3250000E-04    1.3169576E-08
 -9.3200000E-04    1.6310855E-08
 -9.3149999E-04    1.8393106E-08
 -9.3099999E-04    1.9607295E-08
 -9.3049998E-04    1.9918703E-08
 -9.2999998E-04    1.9544339E-08
 -9.2949998E-04    1.8414759E-08
 -9.2899997E-04    1.6903227E-08
 -9.2850003E-04    1.4931617E-08
 -9.2800002E-04    1.2517289E-08
 -9.2750002E-04    9.9380220E-09
 -9.2700002E-04    7.1677735E-09
 -9.2650001E-04    4.4496034E-09
 -9.2600001E-04    1.7661500E-09
 -9.2550000E-04   -3.0966532E-10
 -9.2500000E-04   -2.0556183E-09
 -9.2450000E-04   -3.5932350E-09
 -9.2399999E-04   -4.9398734E-09
 -9.2349999E-04   -6.0955321E-09
 -9.2299999E-04   -6.8084711E-09
 -9.2249998E-04   -6.8703558E-09
 -9.2199998E-04   -6.4374359E-09
 -9.2149997E-04   -5.3968643E-09
 -9.2100003E-04   -3.2798901E-09
 -9.2050002E-04   -2.7748773E-10
 -9.2000002E-04    3.6624237E-09
 -9.1950002E-04    8.2620613E-09
 -9.1900001E-04    1.2896421E-08
 -9.1850001E-04    1.7079385E-08
 -9.1800001E-04    2.0446368E-08
 -9.1750000E-04    2.2355003E-08
 -9.1700000E-04    2.2345215E-08
 -9.1649999E-04    2.0328033E-08
 -9.1599999E-04    1.5962735E-08
 -9.1549999E-04    9.3838795E-09
 -9.1499998E-04    1.2598684E-09
 -9.1449998E-04   -8.3919334E-09
 -9.1399997E-04   -1.8703464E-08
 -9.1349997E-04   -2.9119166E-08
 -9.1300003E-04   -3.9170281E-08
 -9.1250002E-04   -4.7867221E-08
 -9.1200002E-04   -5.4307204E-08
 -9.1150001E-04   -5.7344391E-08
 -9.1100001E-04   -5.6119401E-08
 -9.1050001E-04   -5.0449945E-08
 -9.1000000E-04   -4.0011034E-08
 -9.0950000E-04   -2.5205789E-08
 -9.0899999E-04   -6.5550356E-09
 -9.0849999E-04    1.4804065E-08
 -9.0799999E-04    3.7569425E-08
 -9.0749998E-04    5.9831315E-08
 -9.0699998E-04    8.0252924E-08
 -9.0649998E-04    9.7358544E-08
 -9.0599997E-04    1.0982874E-07
 -9.0550003E-04    1.1703850E-07
 -9.0500002E-04    1.1838886E-07
 -9.0450002E-04    1.1362809E-07
 -9.0400001E-04    1.0333345E-07
 -9.0350001E-04    8.7664439E-08
 -9.0300001E-04    6.7893858E-08
 -9.0250000E-04    4.5380208E-08
 -9.0200000E-04    2.1347455E-08
 -9.0150000E-04   -2.5724540E-09
 -9.0099999E-04   -2.4964583E-08
 -9.0049999E-04   -4.4301157E-08
 -8.9999998E-04   -5.9744494E-08
 -8.9949998E-04   -7.0830183E-08
 -8.9899998E-04   -7.7512645E-08
 -8.9849997E-04   -7.9023394E-08
 -8.9800003E-04   -7.5956216E-08
 -8.9750002E-04   -6.9139041E-08
 -8.9700002E-04   -5.9162137E-08
 -8.9650002E-04   -4.7017256E-08
 -8.9600001E-04   -3.4019507E-08
 -8.9550001E-04   -2.1178012E-08
 -8.9500000E-04   -9.5539585E-09
 -8.9450000E-04   -1.8467926E-10
 -8.9400000E-04    6.6889423E-09
 -8.9349999E-04    1.1158053E-08
 -8.9299999E-04    1.2641055E-08
 -8.9249999E-04    1.1780309E-08
 -8.9199998E-04    8.2980387E-09
 -8.9149998E-04    3.2359120E-09
 -8.9099997E-04   -2.1907935E-09
 -8.9050003E-04   -6.9577717E-09
 -8.9000002E-04   -1.0804610E-08
 -8.8950002E-04   -1.3266899E-08
 -8.8900002E-04   -1.4236137E-08
 -8.8850001E-04   -1.4415454E-08
 -8.8800001E-04   -1.3518394E-08
 -8.8750001E-04   -1.2656074E-08
 -8.8700000E-04   -1.2661828E-08
 -8.8650000E-04   -1.4299547E-08
 -8.8599999E-04   -1.8055342E-08
 -8.8549999E-04   -2.4016014E-08
 -8.8499999E-04   -3.1886422E-08
 -8.8449998E-04   -4.0902670E-08
 -8.8399998E-04   -5.0813011E-08
 -8.8349998E-04   -6.0306675E-08
 -8.8299997E-04   -6.7912303E-08
 -8.8250003E-04   -7.2488731E-08
 -8.8200002E-04   -7.3033007E-08
 -8.8150002E-04   -6.8872396E-08
 -8.8100001E-04   -5.9980842E-08
 -8.8050001E-04   -4.6123986E-08
 -8.8000001E-04   -2.8221974E-08
 -8.7950000E-04   -7.5595272E-09
 -8.7900000E-04    1.4109871E-08
 -8.7850000E-04    3.4876486E-08
 -8.7799999E-04    5.3125724E-08
 -8.7749999E-04    6.7607573E-08
 -8.7699998E-04    7.7436617E-08
 -8.7649998E-04    8.1970491E-08
 -8.7599998E-04    8.0393221E-08
 -8.7549997E-04    7.2023369E-08
 -8.7500003E-04    5.7568961E-08
 -8.7450002E-04    3.8813308E-08
 -8.7400002E-04    1.7140975E-08
 -8.7350002E-04   -4.9133133E-09
 -8.7300001E-04   -2.6429403E-08
 -8.7250001E-04   -4.5410761E-08
 -8.7200000E-04   -5.9739314E-08
 -8.7150000E-04   -6.7869919E-08
 -8.7100000E-04   -6.8986594E-08
 -8.7049999E-04   -6.2811566E-08
 -8.6999999E-04   -5.0594839E-08
 -8.6949999E-04   -3.2961406E-08
 -8.6899998E-04   -1.1282807E-08
 -8.6849998E-04    1.2140601E-08
 -8.6799997E-04    3.5355683E-08
 -8.6750003E-04    5.6062081E-08
 -8.6700002E-04    7.3556663E-08
 -8.6650002E-04    8.6556881E-08
 -8.6600002E-04    9.4062273E-08
 -8.6550001E-04    9.6669638E-08
 -8.6500001E-04    9.4641550E-08
 -8.6450001E-04    8.8168981E-08
 -8.6400000E-04    7.8241527E-08
 -8.6350000E-04    6.6395643E-08
 -8.6299999E-04    5.4636548E-08
 -8.6249999E-04    4.3728125E-08
 -8.6199999E-04    3.4469000E-08
 -8.6149998E-04    2.7952925E-08
 -8.6099998E-04    2.5169497E-08
 -8.6049997E-04    2.6257608E-08
 -8.5999997E-04    3.1199903E-08
 -8.5950003E-04    4.0117918E-08
 -8.5900002E-04    5.2386664E-08
 -8.5850002E-04    6.6113770E-08
 -8.5800001E-04    8.0066613E-08
 -8.5750001E-04    9.3168786E-08
 -8.5700001E-04    1.0463688E-07
 -8.5650000E-04    1.1276298E-07
 -8.5600000E-04    1.1703495E-07
 -8.5549999E-04    1.1503957E-07
 -8.5499999E-04    1.0644697E-07
 -8.5449999E-04    9.0962004E-08
 -8.5399998E-04    6.8636737E-08
 -8.5349998E-04    4.0721172E-08
 -8.5299998E-04    8.6389083E-09
 -8.5249997E-04   -2.4380890E-08
 -8.5200003E-04   -5.6706284E-08
 -8.5150002E-04   -8.6635893E-08
 -8.5100002E-04   -1.1253777E-07
 -8.5050002E-04   -1.3201608E-07
 -8.5000001E-04   -1.4384686E-07
 -8.4950001E-04   -1.4744634E-07
 -8.4900000E-04   -1.4246076E-07
 -8.4850000E-04   -1.2968006E-07
 -8.4800000E-04   -1.0964241E-07
 -8.4749999E-04   -8.4639467E-08
 -8.4699999E-04   -5.5435098E-08
 -8.4649998E-04   -2.3209852E-08
 -8.4599998E-04    9.8140607E-09
 -8.4549998E-04    4.1483869E-08
 -8.4499997E-04    7.1000969E-08
 -8.4450003E-04    9.5413959E-08
 -8.4400002E-04    1.1241382E-07
 -8.4350002E-04    1.2073315E-07
 -8.4300002E-04    1.1965527E-07
 -8.4250001E-04    1.0831697E-07
 -8.4200001E-04    8.7829370E-08
 -8.4150000E-04    5.8886879E-08
 -8.4100000E-04    2.3208226E-08
 -8.4050000E-04   -1.6567714E-08
 -8.3999999E-04   -5.7211778E-08
 -8.3949999E-04   -9.7022593E-08
 -8.3899999E-04   -1.3290988E-07
 -8.3849998E-04   -1.6312015E-07
 -8.3799998E-04   -1.8709783E-07
 -8.3749997E-04   -2.0195230E-07
 -8.3700003E-04   -2.0686755E-07
 -8.3650002E-04   -2.0138782E-07
 -8.3600002E-04   -1.8464071E-07
 -8.3550002E-04   -1.5798034E-07
 -8.3500001E-04   -1.2185808E-07
 -8.3450001E-04   -7.8478763E-08
 -8.3400001E-04   -2.9239954E-08
 -8.3350000E-04    2.3957309E-08
 -8.3300000E-04    7.8934193E-08
 -8.3249999E-04    1.3292160E-07
 -8.3199999E-04    1.8329361E-07
 -8.3149999E-04    2.2804068E-07
 -8.3099998E-04    2.6304815E-07
 -8.3049998E-04    2.8515629E-07
 -8.2999998E-04    2.9203869E-07
 -8.2949997E-04    2.8336541E-07
 -8.2900003E-04    2.5723540E-07
 -8.2850002E-04    2.1405661E-07
 -8.2800002E-04    1.5536334E-07
 -8.2750001E-04    8.3831381E-08
 -8.2700001E-04    4.2426485E-10
 -8.2650001E-04   -9.0083681E-08
 -8.2600000E-04   -1.8333478E-07
 -8.2550000E-04   -2.7212411E-07
 -8.2500000E-04   -3.5270165E-07
 -8.2449999E-04   -4.1923397E-07
 -8.2399999E-04   -4.6830095E-07
 -8.2349998E-04   -4.9528450E-07
 -8.2299998E-04   -4.9731995E-07
 -8.2249998E-04   -4.7360868E-07
 -8.2199997E-04   -4.2478877E-07
 -8.2150003E-04   -3.5243784E-07
 -8.2100002E-04   -2.6131070E-07
 -8.2050002E-04   -1.5513140E-07
 -8.2000002E-04   -3.9142968E-08
 -8.1950001E-04    8.0230912E-08
 -8.1900001E-04    1.9675757E-07
 -8.1850000E-04    3.0295431E-07
 -8.1800000E-04    3.9109540E-07
 -8.1750000E-04    4.5864607E-07
 -8.1699999E-04    5.0291538E-07
 -8.1649999E-04    5.2249703E-07
 -8.1599999E-04    5.1810287E-07
 -8.1549998E-04    4.9060964E-07
 -8.1499998E-04    4.4303272E-07
 -8.1449997E-04    3.7981772E-07
 -8.1400003E-04    3.0692385E-07
 -8.1350002E-04    2.2874354E-07
 -8.1300002E-04    1.5046777E-07
 -8.1250002E-04    7.9379568E-08
 -8.1200001E-04    1.6129977E-08
 -8.1150001E-04   -3.6590006E-08
 -8.1100001E-04   -7.6731773E-08
 -8.1050000E-04   -1.0499847E-07
 -8.1000000E-04   -1.2030502E-07
 -8.0949999E-04   -1.2675301E-07
 -8.0899999E-04   -1.2593971E-07
 -8.0849999E-04   -1.2011337E-07
 -8.0799998E-04   -1.0961691E-07
 -8.0749998E-04   -9.5394341E-08
 -8.0699997E-04   -7.9075456E-08
 -8.0649997E-04   -6.0249008E-08
 -8.0600003E-04   -4.1633104E-08
 -8.0550002E-04   -2.2103604E-08
 -8.0500002E-04   -7.3926643E-10
 -8.0450001E-04    2.1056925E-08
 -8.0400001E-04    4.5199055E-08
 -8.0350001E-04    7.2981621E-08
 -8.0300000E-04    1.0247972E-07
 -8.0250000E-04    1.3033721E-07
 -8.0200000E-04    1.5824682E-07
 -8.0149999E-04    1.8169735E-07
 -8.0099999E-04    1.9888223E-07
 -8.0049998E-04    2.0914166E-07
 -7.9999998E-04    2.0716796E-07
 -7.9949998E-04    1.9412653E-07
 -7.9899997E-04    1.6699212E-07
 -7.9850003E-04    1.2921532E-07
 -7.9800002E-04    8.4763101E-08
 -7.9750002E-04    3.6326455E-08
 -7.9700002E-04   -1.2136260E-08
 -7.9650001E-04   -5.8098987E-08
 -7.9600001E-04   -1.0006865E-07
 -7.9550000E-04   -1.3493758E-07
 -7.9500000E-04   -1.5991063E-07
 -7.9450000E-04   -1.7330376E-07
 -7.9399999E-04   -1.7639297E-07
 -7.9349999E-04   -1.7011580E-07
 -7.9299998E-04   -1.5647092E-07
 -7.9249998E-04   -1.3492232E-07
 -7.9199998E-04   -1.0898130E-07
 -7.9149997E-04   -8.4203471E-08
 -7.9100003E-04   -6.5710367E-08
 -7.9050002E-04   -5.4057576E-08
 -7.9000002E-04   -5.2300678E-08
 -7.8950002E-04   -6.0474420E-08
 -7.8900001E-04   -8.0141312E-08
 -7.8850001E-04   -1.1084997E-07
 -7.8800000E-04   -1.4850319E-07
 -7.8750000E-04   -1.8924678E-07
 -7.8700000E-04   -2.3122307E-07
 -7.8649999E-04   -2.6863557E-07
 -7.8599999E-04   -2.9483280E-07
 -7.8549999E-04   -3.1061333E-07
 -7.8499998E-04   -3.1177575E-07
 -7.8449998E-04   -2.9512555E-07
 -7.8399997E-04   -2.5969049E-07
 -7.8350003E-04   -2.0689420E-07
 -7.8300002E-04   -1.4118109E-07
 -7.8250002E-04   -6.2481774E-08
 -7.8200002E-04    1.9828729E-08
 -7.8150001E-04    1.0384068E-07
 -7.8100001E-04    1.8262693E-07
 -7.8050001E-04    2.5067098E-07
 -7.8000000E-04    3.0456565E-07
 -7.7950000E-04    3.3998796E-07
 -7.7899999E-04    3.5016708E-07
 -7.7849999E-04    3.3670023E-07
 -7.7799999E-04    2.9417069E-07
 -7.7749998E-04    2.2052990E-07
 -7.7699998E-04    1.2181950E-07
 -7.7649998E-04    7.6576230E-09
 -7.7599997E-04   -1.1199039E-07
 -7.7550003E-04   -2.3090924E-07
 -7.7500002E-04   -3.3661621E-07
 -7.7450002E-04   -4.1984040E-07
 -7.7400001E-04   -4.7068599E-07
 -7.7350001E-04   -4.8357998E-07
 -7.7300001E-04   -4.5432091E-07
 -7.7250000E-04   -3.8492277E-07
 -7.7200000E-04   -2.7840639E-07
 -7.7150000E-04   -1.4779268E-07
 -7.7099999E-04   -1.4844300E-09
 -7.7049999E-04    1.4496268E-07
 -7.6999998E-04    2.8118404E-07
 -7.6949998E-04    3.9065611E-07
 -7.6899998E-04    4.6734587E-07
 -7.6849997E-04    5.0794165E-07
 -7.6800003E-04    5.0414485E-07
 -7.6750002E-04    4.5656307E-07
 -7.6700002E-04    3.7439776E-07
 -7.6650002E-04    2.6941976E-07
 -7.6600001E-04    1.4881670E-07
 -7.6550001E-04    2.8873334E-08
 -7.6500000E-04   -7.6069959E-08
 -7.6450000E-04   -1.5712423E-07
 -7.6400000E-04   -2.0545913E-07
 -7.6349999E-04   -2.1151079E-07
 -7.6299999E-04   -1.7624276E-07
 -7.6249999E-04   -1.0104393E-07
 -7.6199998E-04    4.6759756E-09
 -7.6149998E-04    1.2782661E-07
 -7.6099997E-04    2.5302597E-07
 -7.6050003E-04    3.7115944E-07
 -7.6000002E-04    4.7340745E-07
 -7.5950002E-04    5.4855474E-07
 -7.5900002E-04    5.8905772E-07
 -7.5850001E-04    5.9506317E-07
 -7.5800001E-04    5.6687577E-07
 -7.5750001E-04    5.0903543E-07
 -7.5700000E-04    4.2114272E-07
 -7.5650000E-04    3.0713869E-07
 -7.5599999E-04    1.6959284E-07
 -7.5549999E-04    1.7255191E-08
 -7.5499999E-04   -1.3860684E-07
 -7.5449998E-04   -2.8806261E-07
 -7.5399998E-04   -4.2522669E-07
 -7.5349997E-04   -5.4466494E-07
 -7.5299997E-04   -6.4053535E-07
 -7.5250003E-04   -7.0914439E-07
 -7.5200002E-04   -7.6064396E-07
 -7.5150002E-04   -7.9347143E-07
 -7.5100001E-04   -8.1643782E-07
 -7.5050001E-04   -8.3091459E-07
 -7.5000001E-04   -8.3596422E-07
 -7.4950000E-04   -8.3467705E-07
 -7.4900000E-04   -8.2276495E-07
 -7.4850000E-04   -7.9739800E-07
 -7.4799999E-04   -7.4829848E-07
 -7.4749999E-04   -6.7869547E-07
 -7.4699998E-04   -5.7572441E-07
 -7.4649998E-04   -4.3690261E-07
 -7.4599998E-04   -2.5627946E-07