 -1.2000001E-03    1.0000000E-24
 -1.1995001E-03    1.0000000E-24
 -1.1990000E-03    1.0000000E-24
 -1.1985000E-03    1.0000000E-24
 -1.1980000E-03    1.0000000E-24
 -1.1975000E-03    1.0000000E-24
 -1.1970000E-03    1.0000000E-24
 -1.1965000E-03    1.0000000E-24
 -1.1960000E-03    1.0000000E-24
 -1.1955000E-03    1.0000001E-24
 -1.1950000E-03    1.0000002E-24
 -1.1945000E-03    1.0000002E-24
 -1.1940000E-03    1.0000002E-24
 -1.1935000E-03    1.0000002E-24
 -1.1930000E-03    1.0000002E-24
 -1.1925000E-03    1.0000002E-24
 -1.1920000E-03    1.0000002E-24
 -1.1915000E-03    1.0000002E-24
 -1.1910000E-03    1.0000002E-24
 -1.1905000E-03    1.0000002E-24
 -1.1900000E-03    1.0000002E-24
 -1.1895000E-03    1.0000002E-24
 -1.1890000E-03    1.0000002E-24
 -1.1885000E-03    1.0000002E-24
 -1.1880000E-03    1.0000002E-24
 -1.1875000E-03    1.0000002E-24
 -1.1870000E-03    1.0000002E-24
 -1.1865000E-03    1.0000002E-24
 -1.1860000E-03    1.0000002E-24
 -1.1854999E-03    1.0000002E-24
 -1.1849999E-03    1.0000001E-24
 -1.1845001E-03    1.0000000E-24
 -1.1840001E-03    1.0000000E-24
 -1.1835000E-03    1.0000000E-24
 -1.1830000E-03    1.0000000E-24
 -1.1825000E-03    1.0000000E-24
 -1.1820000E-03    1.0000000E-24
 -1.1815000E-03    1.0000000E-24
 -1.1810000E-03    1.0000000E-24
 -1.1805000E-03    1.0000000E-24
 -1.1800000E-03    1.0000000E-24
 -1.1795000E-03    1.0000001E-24
 -1.1790000E-03    1.0000002E-24
 -1.1785000E-03    1.0000003E-24
 -1.1780000E-03    1.0000003E-24
 -1.1775000E-03    1.0000003E-24
 -1.1770000E-03    1.0000003E-24
 -1.1765000E-03    1.0000003E-24
 -1.1760000E-03    1.0000003E-24
 -1.1755000E-03    1.0000003E-24
 -1.1750000E-03    1.0000002E-24
 -1.1745000E-03    1.0000001E-24
 -1.1740000E-03    1.0000000E-24
 -1.1735000E-03    9.9999992E-25
 -1.1730000E-03    9.9999992E-25
 -1.1725000E-03    9.9999992E-25
 -1.1720000E-03    9.9999992E-25
 -1.1715000E-03    9.9999992E-25
 -1.1710000E-03    9.9999992E-25
 -1.1704999E-03    9.9999992E-25
 -1.1699999E-03    9.9999992E-25
 -1.1695001E-03    9.9999992E-25
 -1.1690001E-03    1.0000000E-24
 -1.1685000E-03    1.0000001E-24
 -1.1680000E-03    1.0000002E-24
 -1.1675000E-03    1.0000003E-24
 -1.1670000E-03    1.0000004E-24
 -1.1665000E-03    1.0000004E-24
 -1.1660000E-03    1.0000004E-24
 -1.1655000E-03    1.0000004E-24
 -1.1650000E-03    1.0000004E-24
 -1.1645000E-03    1.0000004E-24
 -1.1640000E-03    1.0000004E-24
 -1.1635000E-03    1.0000004E-24
 -1.1630000E-03    1.0000003E-24
 -1.1625000E-03    1.0000002E-24
 -1.1620000E-03    1.0000001E-24
 -1.1615000E-03    1.0000001E-24
 -1.1610000E-03    1.0000001E-24
 -1.1605000E-03    1.0000001E-24
 -1.1600000E-03    1.0000001E-24
 -1.1595000E-03    1.0000001E-24
 -1.1590000E-03    1.0000001E-24
 -1.1585000E-03    1.0000001E-24
 -1.1580000E-03    1.0000001E-24
 -1.1575000E-03    1.0000002E-24
 -1.1570000E-03    1.0000003E-24
 -1.1565000E-03    1.0000004E-24
 -1.1560000E-03    1.0000004E-24
 -1.1555000E-03    1.0000004E-24
 -1.1549999E-03    1.0000004E-24
 -1.1544999E-03    1.0000004E-24
 -1.1540001E-03    1.0000004E-24
 -1.1535001E-03    1.0000004E-24
 -1.1530000E-03    1.0000003E-24
 -1.1525000E-03    1.0000002E-24
 -1.1520000E-03    1.0000001E-24
 -1.1515000E-03    1.0000000E-24
 -1.1510000E-03    1.0000000E-24
 -1.1505000E-03    1.0000000E-24
 -1.1500000E-03    1.0000001E-24
 -1.1495000E-03    1.0000002E-24
 -1.1490000E-03    1.0000004E-24
 -1.1485000E-03    1.0000007E-24
 -1.1480000E-03    1.0000011E-24
 -1.1475000E-03    1.0000016E-24
 -1.1470000E-03    1.0000022E-24
 -1.1465000E-03    1.0000028E-24
 -1.1460000E-03    1.0000033E-24
 -1.1455000E-03    1.0000035E-24
 -1.1450000E-03    1.0000031E-24
 -1.1445000E-03    1.0000017E-24
 -1.1440000E-03    9.9999874E-25
 -1.1435000E-03    9.9999351E-25
 -1.1430000E-03    9.9998523E-25
 -1.1425000E-03    9.9997310E-25
 -1.1420000E-03    9.9995634E-25
 -1.1415000E-03    9.9993464E-25
 -1.1410000E-03    9.9990812E-25
 -1.1405000E-03    9.9987804E-25
 -1.1399999E-03    9.9984718E-25
 -1.1394999E-03    9.9982036E-25
 -1.1390001E-03    9.9980537E-25
 -1.1385001E-03    9.9981355E-25
 -1.1380001E-03    9.9986000E-25
 -1.1375000E-03    9.9996393E-25
 -1.1370000E-03    1.0001484E-24
 -1.1365000E-03    1.0004385E-24
 -1.1360000E-03    1.0008588E-24
 -1.1355000E-03    1.0014291E-24
 -1.1350000E-03    1.0021583E-24
 -1.1345000E-03    1.0030352E-24
 -1.1340000E-03    1.0040177E-24
 -1.1335000E-03    1.0050206E-24
 -1.1330000E-03    1.0059008E-24
 -1.1325000E-03    1.0064445E-24
 -1.1320000E-03    1.0063555E-24
 -1.1315000E-03    1.0052510E-24
 -1.1310000E-03    1.0026666E-24
 -1.1305000E-03    9.9807697E-25
 -1.1300000E-03    9.9093768E-25
 -1.1295000E-03    9.8075359E-25
 -1.1290000E-03    9.6717936E-25
 -1.1285000E-03    9.5015555E-25
 -1.1280000E-03    9.3007845E-25
 -1.1275000E-03    9.0800158E-25
 -1.1270000E-03    8.8585283E-25
 -1.1265000E-03    8.6664959E-25
 -1.1260000E-03    8.5467646E-25
 -1.1255000E-03    8.5558542E-25
 -1.1250000E-03    8.7636067E-25
 -1.1244999E-03    9.2508466E-25
 -1.1239999E-03    1.0104345E-24
 -1.1235001E-03    1.1408399E-24
 -1.1230001E-03    1.3232431E-24
 -1.1225000E-03    1.5614281E-24
 -1.1220000E-03    1.8539245E-24
 -1.1215000E-03    2.1915516E-24
 -1.1210000E-03    2.5547475E-24
 -1.1205000E-03    2.9109220E-24
 -1.1200000E-03    3.2121854E-24
 -1.1195000E-03    3.3939186E-24
 -1.1190000E-03    3.3747623E-24
 -1.1185000E-03    3.0586869E-24
 -1.1180000E-03    2.3398419E-24
 -1.1175000E-03    1.1108648E-24
 -1.1170000E-03   -7.2481501E-25
 -1.1165000E-03   -3.2363740E-24
 -1.1160000E-03   -6.4448019E-24
 -1.1155000E-03   -1.0298574E-23
 -1.1150000E-03   -1.4647164E-23
 -1.1145000E-03   -1.9214610E-23
 -1.1140000E-03   -2.3576314E-23
 -1.1135000E-03   -2.7143158E-23
 -1.1130000E-03   -2.9157959E-23
 -1.1125000E-03   -2.8709801E-23
 -1.1120000E-03   -2.4772096E-23
 -1.1115000E-03   -1.6269794E-23
 -1.1110000E-03   -2.1799694E-24
 -1.1105000E-03    1.8332058E-23
 -1.1100000E-03    4.5742150E-23
 -1.1094999E-03    7.9967808E-23
 -1.1089999E-03    1.2015047E-22
 -1.1084999E-03    1.6443679E-22
 -1.1080001E-03    2.0978277E-22
 -1.1075001E-03    2.5181129E-22
 -1.1070000E-03    2.8475905E-22
 -1.1065000E-03    3.0155300E-22
 -1.1060000E-03    2.9405680E-22
 -1.1055000E-03    2.5352470E-22
 -1.1050000E-03    1.7129101E-22
 -1.1045000E-03    3.9708683E-23
 -1.1040000E-03   -1.4667185E-22
 -1.1035000E-03   -3.8972107E-22
 -1.1030000E-03   -6.8621836E-22
 -1.1025000E-03   -1.0263222E-21
 -1.1020000E-03   -1.3921755E-21
 -1.1015000E-03   -1.7568381E-21
 -1.1010000E-03   -2.0837740E-21
 -1.1005000E-03   -2.3271345E-21
 -1.1000000E-03   -2.4330859E-21
 -1.0995000E-03   -2.3424010E-21
 -1.0990000E-03   -1.9944803E-21
 -1.0985000E-03   -1.3328755E-21
 -1.0980000E-03   -3.1226500E-22
 -1.0975000E-03    1.0933446E-21
 -1.0970000E-03    2.8815992E-21
 -1.0965000E-03    5.0125942E-21
 -1.0960000E-03    7.4003374E-21
 -1.0955000E-03    9.9059345E-21
 -1.0950000E-03    1.2333712E-20
 -1.0945000E-03    1.4431588E-20
 -1.0939999E-03    1.5896993E-20
 -1.0934999E-03    1.6389482E-20
 -1.0930001E-03    1.5550912E-20
 -1.0925001E-03    1.3033559E-20
 -1.0920000E-03    8.5358932E-21
 -1.0915000E-03    1.8449335E-21
 -1.0910000E-03   -7.1168592E-21
 -1.0905000E-03   -1.8243247E-20
 -1.0900000E-03   -3.1198568E-20
 -1.0895000E-03   -4.5379817E-20
 -1.0890000E-03   -5.9892284E-20
 -1.0885000E-03   -7.3544938E-20
 -1.0880000E-03   -8.4871658E-20
 -1.0875000E-03   -9.2183728E-20
 -1.0870000E-03   -9.3657589E-20
 -1.0865000E-03   -8.7459855E-20
 -1.0860000E-03   -7.1908400E-20
 -1.0855000E-03   -4.5665023E-20
 -1.0850000E-03   -7.9508730E-21
 -1.0845000E-03    4.1228640E-20
 -1.0840000E-03    1.0086703E-19
 -1.0835000E-03    1.6876971E-19
 -1.0830000E-03    2.4142140E-19
 -1.0825000E-03    3.1393440E-19
 -1.0820000E-03    3.8010355E-19
 -1.0815000E-03    4.3259134E-19
 -1.0810000E-03    4.6326033E-19
 -1.0805000E-03    4.6366296E-19
 -1.0800000E-03    4.2568511E-19
 -1.0795000E-03    3.4232810E-19
 -1.0790000E-03    2.0859525E-19
 -1.0784999E-03    2.2433540E-20
 -1.0779999E-03   -2.1433753E-19
 -1.0775001E-03   -4.9519302E-19
 -1.0770001E-03   -8.0826077E-19
 -1.0765000E-03   -1.1359732E-18
 -1.0760000E-03   -1.4551147E-18
 -1.0755000E-03   -1.7373564E-18
 -1.0750000E-03   -1.9503540E-18
 -1.0745000E-03   -2.0594487E-18
 -1.0740000E-03   -2.0299788E-18
 -1.0735000E-03   -1.8301452E-18
 -1.0730000E-03   -1.4343330E-18
 -1.0725000E-03   -8.2671300E-19
 -1.0720000E-03   -4.8893555E-21
 -1.0715000E-03    1.0166952E-18
 -1.0710000E-03    2.2039406E-18
 -1.0705000E-03    3.5012231E-18
 -1.0700000E-03    4.8308634E-18
 -1.0695000E-03    6.0942705E-18
 -1.0690000E-03    7.1750680E-18
 -1.0685000E-03    7.9443890E-18
 -1.0680000E-03    8.2684105E-18
 -1.0675000E-03    8.0180131E-18
 -1.0670000E-03    7.0802756E-18
 -1.0665000E-03    5.3712626E-18
 -1.0660000E-03    2.8493742E-18
 -1.0655000E-03   -4.7171034E-19
 -1.0650000E-03   -4.5116325E-18
 -1.0645000E-03   -9.1147760E-18
 -1.0640000E-03   -1.4045818E-17
 -1.0634999E-03   -1.8990712E-17
 -1.0629999E-03   -2.3564223E-17
 -1.0625001E-03   -2.7324831E-17
 -1.0620001E-03   -2.9797478E-17
 -1.0615001E-03   -3.0504012E-17
 -1.0610000E-03   -2.9000598E-17
 -1.0605000E-03   -2.4920545E-17
 -1.0600000E-03   -1.8020389E-17
 -1.0595000E-03   -8.2260961E-18
 -1.0590000E-03    4.3242066E-18
 -1.0585000E-03    1.9245249E-17
 -1.0580000E-03    3.5881851E-17
 -1.0575000E-03    5.3302893E-17
 -1.0570000E-03    7.0316109E-17
 -1.0565000E-03    8.5507010E-17
 -1.0560000E-03    9.7303982E-17
 -1.0555000E-03    1.0406992E-16
 -1.0550000E-03    1.0421867E-16
 -1.0545000E-03    9.6352095E-17
 -1.0540000E-03    7.9411086E-17
 -1.0535000E-03    5.2831202E-17
 -1.0530000E-03    1.6691214E-17
 -1.0525000E-03   -2.8159011E-17
 -1.0520000E-03   -8.0006093E-17
 -1.0515000E-03   -1.3623121E-16
 -1.0510000E-03   -1.9333264E-16
 -1.0505000E-03   -2.4702451E-16
 -1.0500000E-03   -2.9241944E-16
 -1.0495000E-03   -3.2429765E-16
 -1.0490000E-03   -3.3745809E-16
 -1.0485000E-03   -3.2713982E-16
 -1.0479999E-03   -2.8949347E-16
 -1.0474999E-03   -2.2207354E-16
 -1.0470001E-03   -1.2431585E-16
 -1.0465001E-03    2.0429622E-18
 -1.0460000E-03    1.5265024E-16
 -1.0455000E-03    3.2037348E-16
 -1.0450000E-03    4.9533200E-16
 -1.0445000E-03    6.6516036E-16
 -1.0440000E-03    8.1552782E-16
 -1.0435000E-03    9.3092097E-16
 -1.0430000E-03    9.9567548E-16
 -1.0425000E-03    9.9522020E-16
 -1.0420000E-03    9.1746956E-16
 -1.0415000E-03    7.5427696E-16
 -1.0410000E-03    5.0283751E-16
 -1.0405000E-03    1.6691340E-16
 -1.0400000E-03   -2.4225637E-16
 -1.0395000E-03   -7.0549798E-16
 -1.0390000E-03   -1.1958210E-15
 -1.0385000E-03   -1.6792104E-15
 -1.0380000E-03   -2.1161500E-15
 -1.0375000E-03   -2.4638848E-15
 -1.0370000E-03   -2.6793634E-15
 -1.0365000E-03   -2.7227338E-15
 -1.0360000E-03   -2.5611968E-15
 -1.0355000E-03   -2.1729457E-15
 -1.0350000E-03   -1.5508757E-15
 -1.0345000E-03   -7.0569825E-16
 -1.0340000E-03    3.3191248E-16
 -1.0335000E-03    1.5104955E-15
 -1.0329999E-03    2.7586059E-15
 -1.0324999E-03    3.9874576E-15
 -1.0319999E-03    5.0954910E-15
 -1.0315001E-03    5.9748023E-15
 -1.0310001E-03    6.5191861E-15
 -1.0305000E-03    6.6333594E-15
 -1.0300000E-03    6.2427578E-15
 -1.0295000E-03    5.3031327E-15
 -1.0290000E-03    3.8090729E-15
 -1.0285000E-03    1.8005100E-15
 -1.0280000E-03   -6.3369669E-16
 -1.0275000E-03   -3.3558952E-15
 -1.0270000E-03   -6.1840884E-15
 -1.0265000E-03   -8.9009898E-15
 -1.0260000E-03   -1.1267615E-14
 -1.0255000E-03   -1.3040897E-14
 -1.0250000E-03   -1.3994369E-14
 -1.0245000E-03   -1.3940511E-14
 -1.0240000E-03   -1.2752969E-14
 -1.0235000E-03   -1.0386585E-14
 -1.0230000E-03   -6.8930194E-15
 -1.0225000E-03   -2.4298510E-15
 -1.0220000E-03    2.7387546E-15
 -1.0215000E-03    8.2511631E-15
 -1.0210000E-03    1.3667857E-14
 -1.0205000E-03    1.8501268E-14
 -1.0200000E-03    2.2254593E-14
 -1.0195000E-03    2.4467299E-14
 -1.0190000E-03    2.4763925E-14
 -1.0185000E-03    2.2901996E-14
 -1.0180000E-03    1.8814206E-14
 -1.0174999E-03    1.2639799E-14
 -1.0169999E-03    4.7403068E-15
 -1.0165001E-03   -4.3044177E-15
 -1.0160001E-03   -1.3722715E-14
 -1.0155000E-03   -2.2601180E-14
 -1.0150000E-03   -2.9957123E-14
 -1.0145000E-03   -3.4829768E-14
 -1.0140000E-03   -3.6384107E-14
 -1.0135000E-03   -3.4018846E-14
 -1.0130000E-03   -2.7468116E-14
 -1.0125000E-03   -1.6885361E-14
 -1.0120000E-03   -2.8975720E-15
 -1.0115000E-03    1.3380939E-14
 -1.0110000E-03    3.0383943E-14
 -1.0105000E-03    4.6183038E-14
 -1.0100000E-03    5.8632312E-14
 -1.0095000E-03    6.5562939E-14
 -1.0090000E-03    6.5016738E-14
 -1.0085000E-03    5.5501631E-14
 -1.0080000E-03    3.6246579E-14
 -1.0075000E-03    7.4294912E-15
 -1.0070000E-03   -2.9650771E-14
 -1.0065000E-03   -7.2486728E-14
 -1.0060000E-03   -1.1738425E-13
 -1.0055000E-03   -1.5961319E-13
 -1.0050000E-03   -1.9369602E-13
 -1.0045000E-03   -2.1383225E-13
 -1.0040000E-03   -2.1444134E-13
 -1.0035000E-03   -1.9079288E-13
 -1.0030000E-03   -1.3967702E-13
 -1.0025000E-03   -6.0055666E-14
 -1.0019999E-03    4.6374142E-14
 -1.0014999E-03    1.7477846E-13
 -1.0010001E-03    3.1701725E-13
 -1.0005001E-03    4.6176989E-13
 -1.0000000E-03    5.9500050E-13
 -9.9950004E-04    7.0078286E-13
 -9.9900004E-04    7.6247456E-13
 -9.9850004E-04    7.6419307E-13
 -9.9800003E-04    6.9251045E-13
 -9.9750003E-04    5.3824349E-13
 -9.9700002E-04    2.9818829E-13
 -9.9650002E-04   -2.3377743E-14
 -9.9600002E-04   -4.1361223E-13
 -9.9550001E-04   -8.5062361E-13
 -9.9500001E-04   -1.3037432E-12
 -9.9450001E-04   -1.7346688E-12
 -9.9400000E-04   -2.0995330E-12
 -9.9350000E-04   -2.3518752E-12
 -9.9299999E-04   -2.4464053E-12
 -9.9249999E-04   -2.3433558E-12
 -9.9199999E-04   -2.0131305E-12
 -9.9149998E-04   -1.4408739E-12
 -9.9099998E-04   -6.3053241E-13
 -9.9049998E-04    3.9205046E-13
 -9.8999997E-04    1.5774582E-12
 -9.8949997E-04    2.8528414E-12
 -9.8899996E-04    4.1241754E-12
 -9.8849996E-04    5.2808027E-12
 -9.8799996E-04    6.2022358E-12
 -9.8749995E-04    6.7670080E-12
 -9.8699995E-04    6.8631216E-12
 -9.8649994E-04    6.3994409E-12
 -9.8600006E-04    5.3171777E-12
 -9.8550005E-04    3.6004700E-12
 -9.8500005E-04    1.2849765E-12
 -9.8450005E-04   -1.5365945E-12
 -9.8400004E-04   -4.7129961E-12
 -9.8350004E-04   -8.0377822E-12
 -9.8300003E-04   -1.1257951E-11
 -9.8250003E-04   -1.4087983E-11
 -9.8200003E-04   -1.6228902E-11
 -9.8150002E-04   -1.7391519E-11
 -9.8100002E-04   -1.7322453E-11
 -9.8050002E-04   -1.5831173E-11
 -9.8000001E-04   -1.2815856E-11
 -9.7950001E-04   -8.2856525E-12
 -9.7900000E-04   -2.3769515E-12
 -9.7850000E-04    4.6386887E-12
 -9.7800000E-04    1.2356844E-11
 -9.7749999E-04    2.0254083E-11
 -9.7699999E-04    2.7713895E-11
 -9.7649998E-04    3.4064255E-11
 -9.7599998E-04    3.8625329E-11
 -9.7549998E-04    4.0764735E-11
 -9.7499997E-04    3.9956760E-11
 -9.7450003E-04    3.5841129E-11
 -9.7400002E-04    2.8276272E-11
 -9.7350002E-04    1.7381888E-11
 -9.7300002E-04    3.5656814E-12
 -9.7250001E-04   -1.2470079E-11
 -9.7200001E-04   -2.9745567E-11
 -9.7150001E-04   -4.7045697E-11
 -9.7100000E-04   -6.2987622E-11
 -9.7050000E-04   -7.6111173E-11
 -9.6999999E-04   -8.4987760E-11
 -9.6949999E-04   -8.8341140E-11
 -9.6899999E-04   -8.5171495E-11
 -9.6849998E-04   -7.4873073E-11
 -9.6799998E-04   -5.7334717E-11
 -9.6749997E-04   -3.3012759E-11
 -9.6700003E-04   -2.9668260E-12
 -9.6650003E-04    3.1149239E-11
 -9.6600002E-04    6.7146115E-11
 -9.6550002E-04    1.0240882E-10
 -9.6500001E-04    1.3405486E-10
 -9.6450001E-04    1.5913379E-10
 -9.6400001E-04    1.7485646E-10
 -9.6350000E-04    1.7883944E-10
 -9.6300000E-04    1.6934554E-10
 -9.6249999E-04    1.4550101E-10
 -9.6199999E-04    1.0746858E-10
 -9.6149999E-04    5.6556777E-11
 -9.6099998E-04   -4.7502757E-12
 -9.6049998E-04   -7.2854799E-11
 -9.5999998E-04   -1.4320420E-10
 -9.5949997E-04   -2.1054514E-10
 -9.5900003E-04   -2.6926275E-10
 -9.5850002E-04   -3.1378741E-10
 -9.5800002E-04   -3.3904321E-10
 -9.5750001E-04   -3.4090644E-10
 -9.5700001E-04   -3.1663860E-10
 -9.5650001E-04   -2.6525526E-10
 -9.5600000E-04   -1.8779482E-10
 -9.5550000E-04   -8.7454072E-11
 -9.5500000E-04    3.0433784E-11
 -9.5449999E-04    1.5859425E-10
 -9.5399999E-04    2.8818178E-10
 -9.5349998E-04    4.0931367E-10
 -9.5299998E-04    5.1174148E-10
 -9.5249998E-04    5.8562016E-10
 -9.5199997E-04    6.2232319E-10
 -9.5150003E-04    6.1524297E-10
 -9.5100002E-04    5.6051097E-10
 -9.5050002E-04    4.5757206E-10
 -9.5000002E-04    3.0955338E-10
 -9.4950001E-04    1.2337803E-10
 -9.4900001E-04   -9.0409853E-11
 -9.4850000E-04   -3.1812170E-10
 -9.4800000E-04   -5.4369365E-10
 -9.4750000E-04   -7.4971374E-10
 -9.4699999E-04   -9.1865054E-10
 -9.4649999E-04   -1.0342021E-09
 -9.4599999E-04   -1.0826717E-09
 -9.4549998E-04   -1.0542622E-09
 -9.4499998E-04   -9.4418040E-10
 -9.4449997E-04   -7.5344658E-10
 -9.4400003E-04   -4.8932258E-10
 -9.4350002E-04   -1.6528892E-10
 -9.4300002E-04    1.9946261E-10
 -9.4250002E-04    5.8102256E-10
 -9.4200001E-04    9.5220498E-10
 -9.4150001E-04    1.2843597E-09
 -9.4100001E-04    1.5494429E-09
 -9.4050000E-04    1.7222056E-09
 -9.4000000E-04    1.7823364E-09
 -9.3949999E-04    1.7163903E-09
 -9.3899999E-04    1.5193340E-09
 -9.3849999E-04    1.1955628E-09
 -9.3799998E-04    7.5926671E-10
 -9.3749998E-04    2.3407623E-10
 -9.3699998E-04   -3.4804135E-10
 -9.3649997E-04   -9.4859753E-10
 -9.3600003E-04   -1.5250198E-09
 -9.3550002E-04   -2.0335633E-09
 -9.3500002E-04   -2.4325049E-09
 -9.3450001E-04   -2.6853886E-09
 -9.3400001E-04   -2.7640792E-09
 -9.3350001E-04   -2.6513749E-09
 -9.3300000E-04   -2.3429554E-09
 -9.3250000E-04   -1.8484736E-09
 -9.3200000E-04   -1.1916614E-09
 -9.3149999E-04   -4.0938647E-10
 -9.3099999E-04    4.5032539E-10
 -9.3049998E-04    1.3312038E-09
 -9.2999998E-04    2.1724103E-09
 -9.2949998E-04    2.9127334E-09
 -9.2899997E-04    3.4950127E-09
 -9.2850003E-04    3.8704595E-09
 -9.2800002E-04    4.0025534E-09
 -9.2750002E-04    3.8701931E-09
 -9.2700002E-04    3.4698422E-09
 -9.2650001E-04    2.8164702E-09
 -9.2600001E-04    1.9431743E-09
 -9.2550000E-04    8.9947472E-10
 -9.2500000E-04   -2.5163674E-10
 -9.2450000E-04   -1.4376977E-09
 -9.2399999E-04   -2.5815590E-09
 -9.2349999E-04   -3.6066106E-09
 -9.2299999E-04   -4.4420654E-09
 -9.2249998E-04   -5.0279150E-09
 -9.2199998E-04   -5.3191833E-09
 -9.2149997E-04   -5.2891620E-09
 -9.2100003E-04   -4.9313793E-09
 -9.2050002E-04   -4.2601673E-09
 -9.2000002E-04   -3.3097889E-09
 -9.1950002E-04   -2.1321958E-09
 -9.1900001E-04   -7.9361884E-10
 -9.1850001E-04    6.2974931E-10
 -9.1800001E-04    2.0566340E-09
 -9.1750000E-04    3.4057461E-09
 -9.1700000E-04    4.6006607E-09
 -9.1649999E-04    5.5741638E-09
 -9.1599999E-04    6.2717791E-09
 -9.1549999E-04    6.6542865E-09
 -9.1499998E-04    6.6991226E-09
 -9.1449998E-04    6.4006800E-09
 -9.1399997E-04    5.7696119E-09
 -9.1349997E-04    4.8313327E-09
 -9.1300003E-04    3.6239549E-09
 -9.1250002E-04    2.1959496E-09
 -9.1200002E-04    6.0377647E-10
 -9.1150001E-04   -1.0902833E-09
 -9.1100001E-04   -2.8199538E-09
 -9.1050001E-04   -4.5163913E-09
 -9.1000000E-04   -6.1092598E-09
 -9.0950000E-04   -7.5276025E-09
 -9.0899999E-04   -8.7007228E-09
 -9.0849999E-04   -9.5593515E-09
 -9.0799999E-04   -1.0037366E-08
 -9.0749998E-04   -1.0074301E-08
 -9.0699998E-04   -9.6187920E-09
 -9.0649998E-04   -8.6329468E-09
 -9.0599997E-04   -7.0975119E-09
 -9.0550003E-04   -5.0174926E-09
 -9.0500002E-04   -2.4277094E-09
 -9.0450002E-04    6.0235167E-10
 -9.0400001E-04    3.9651580E-09
 -9.0350001E-04    7.5139930E-09
 -9.0300001E-04    1.1064786E-08
 -9.0250000E-04    1.4401487E-08
 -9.0200000E-04    1.7285309E-08
 -9.0150000E-04    1.9467837E-08
 -9.0099999E-04    2.0707626E-08
 -9.0049999E-04    2.0789503E-08
 -8.9999998E-04    1.9545332E-08
 -8.9949998E-04    1.6874711E-08
 -8.9899998E-04    1.2763758E-08
 -8.9849997E-04    7.3000201E-09
 -8.9800003E-04    6.8157735E-10
 -8.9750002E-04   -6.7813706E-09
 -8.9700002E-04   -1.4673743E-08
 -8.9650002E-04   -2.2492372E-08
 -8.9600001E-04   -2.9672321E-08
 -8.9550001E-04   -3.5621905E-08
 -8.9500000E-04   -3.9764693E-08
 -8.9450000E-04   -4.1585924E-08
 -8.9400000E-04   -4.0680131E-08
 -8.9349999E-04   -3.6796106E-08
 -8.9299999E-04   -2.9875288E-08
 -8.9249999E-04   -2.0079488E-08
 -8.9199998E-04   -7.8044788E-09
 -8.9149998E-04    6.3233645E-09
 -8.9099997E-04    2.1469083E-08
 -8.9050003E-04    3.6630105E-08
 -8.9000002E-04    5.0695022E-08
 -8.8950002E-04    6.2517309E-08
 -8.8900002E-04    7.0999668E-08
 -8.8850001E-04    7.5183415E-08
 -8.8800001E-04    7.4336057E-08
 -8.8750001E-04    6.8030104E-08
 -8.8700000E-04    5.6205756E-08
 -8.8650000E-04    3.9210992E-08
 -8.8599999E-04    1.7813669E-08
 -8.8549999E-04   -6.8179564E-09
 -8.8499999E-04   -3.3167620E-08
 -8.8449998E-04   -5.9455243E-08
 -8.8399998E-04   -8.3749008E-08
 -8.8349998E-04   -1.0409899E-07
 -8.8299997E-04   -1.1868357E-07
 -8.8250003E-04   -1.2595812E-07
 -8.8200002E-04   -1.2479474E-07
 -8.8150002E-04   -1.1460085E-07
 -8.8100001E-04   -9.5406165E-08
 -8.8050001E-04   -6.7908410E-08
 -8.8000001E-04   -3.3471299E-08
 -8.7950000E-04    5.9287957E-09
 -8.7900000E-04    4.7806939E-08
 -8.7850000E-04    8.9320082E-08
 -8.7799999E-04    1.2745534E-07
 -8.7749999E-04    1.5924401E-07
 -8.7699998E-04    1.8198649E-07
 -8.7649998E-04    1.9347110E-07
 -8.7599998E-04    1.9216964E-07
 -8.7549997E-04    1.7739303E-07
 -8.7500003E-04    1.4939231E-07
 -8.7450002E-04    1.0939402E-07
 -8.7400002E-04    5.9563718E-08
 -8.7350002E-04    2.8958791E-09
 -8.7300001E-04   -5.6964737E-08
 -8.7250001E-04   -1.1596043E-07
 -8.7200000E-04   -1.6990101E-07
 -8.7150000E-04   -2.1476781E-07
 -8.7100000E-04   -2.4701876E-07
 -8.7049999E-04   -2.6387090E-07
 -8.6999999E-04   -2.6353743E-07
 -8.6949999E-04   -2.4539872E-07
 -8.6899998E-04   -2.1009143E-07
 -8.6849998E-04   -1.5950533E-07
 -8.6799997E-04   -9.6684801E-08
 -8.6750003E-04   -2.5638801E-08
 -8.6700002E-04    4.8928424E-08
 -8.6650002E-04    1.2194791E-07
 -8.6600002E-04    1.8835335E-07
 -8.6550001E-04    2.4345772E-07
 -8.6500001E-04    2.8330916E-07
 -8.6450001E-04    3.0499797E-07
 -8.6400000E-04    3.0688841E-07
 -8.6350000E-04    2.8875561E-07
 -8.6299999E-04    2.5181430E-07
 -8.6249999E-04    1.9863523E-07
 -8.6199999E-04    1.3295397E-07
 -8.6149998E-04    5.9386160E-08
 -8.6099998E-04   -1.6928746E-08
 -8.6049997E-04   -9.0726544E-08
 -8.5999997E-04   -1.5702737E-07
 -8.5950003E-04   -2.1152056E-07
 -8.5900002E-04   -2.5089221E-07
 -8.5850002E-04   -2.7306746E-07
 -8.5800001E-04   -2.7734563E-07
 -8.5750001E-04   -2.6441634E-07
 -8.5700001E-04   -2.3625461E-07
 -8.5650000E-04   -1.9590435E-07
 -8.5600000E-04   -1.4716966E-07
 -8.5549999E-04   -9.4242374E-08
 -8.5499999E-04   -4.1300858E-08
 -8.5449999E-04    7.8815328E-09
 -8.5399998E-04    5.0280160E-08
 -8.5349998E-04    8.3880373E-08
 -8.5299998E-04    1.0782904E-07
 -8.5249997E-04    1.2245911E-07
 -8.5200003E-04    1.2918224E-07
 -8.5150002E-04    1.3025772E-07
 -8.5100002E-04    1.2845891E-07
 -8.5050002E-04    1.2667022E-07
 -8.5000001E-04    1.2745618E-07
 -8.4950001E-04    1.3264965E-07
 -8.4900000E-04    1.4300711E-07
 -8.4850000E-04    1.5797470E-07
 -8.4800000E-04    1.7560015E-07
 -8.4749999E-04    1.9261368E-07
 -8.4699999E-04    2.0468356E-07
 -8.4649998E-04    2.0683564E-07
 -8.4599998E-04    1.9400741E-07
 -8.4549998E-04    1.6169025E-07
 -8.4499997E-04    1.0660069E-07
 -8.4450003E-04    2.7312328E-08
 -8.4400002E-04   -7.5222871E-08
 -8.4350002E-04   -1.9733100E-07
 -8.4300002E-04   -3.3250726E-07
 -8.4250001E-04   -4.7158105E-07
 -8.4200001E-04   -6.0317262E-07
 -8.4150000E-04   -7.1443191E-07
 -8.4100000E-04   -7.9202340E-07
 -8.4050000E-04   -8.2329279E-07
 -8.3999999E-04   -7.9752886E-07
 -8.3949999E-04   -7.0721512E-07
 -8.3899999E-04   -5.4915540E-07
 -8.3849998E-04   -3.2535928E-07
 -8.3799998E-04   -4.3579231E-08
 -8.3749997E-04    2.8258458E-07
 -8.3700003E-04    6.3407032E-07
 -8.3650002E-04    9.8725002E-07
 -8.3600002E-04    1.3153118E-06
 -8.3550002E-04    1.5900645E-06
 -8.3500001E-04    1.7840537E-06
 -8.3450001E-04    1.8728467E-06
 -8.3400001E-04    1.8373123E-06
 -8.3350000E-04    1.6657079E-06
 -8.3300000E-04    1.3553870E-06
 -8.3249999E-04    9.1394969E-07
 -8.3199999E-04    3.5969478E-07
 -8.3149999E-04   -2.7872670E-07
 -8.3099998E-04   -9.6350129E-07
 -8.3049998E-04   -1.6496640E-06
 -8.2999998E-04   -2.2878437E-06
 -8.2949997E-04   -2.8275892E-06
 -8.2900003E-04   -3.2210664E-06
 -8.2850002E-04   -3.4268653E-06
 -8.2800002E-04   -3.4136383E-06
 -8.2750001E-04   -3.1632699E-06
 -8.2700001E-04   -2.6733037E-06
 -8.2650001E-04   -1.9583840E-06
 -8.2600000E-04   -1.0505292E-06
 -8.2550000E-04    1.8699116E-09
 -8.2500000E-04    1.1363398E-06
 -8.2449999E-04    2.2798226E-06
 -8.2399999E-04    3.3532031E-06
 -8.2349998E-04    4.2765973E-06
 -8.2299998E-04    4.9750579E-06
 -8.2249998E-04    5.3843060E-06
 -8.2199997E-04    5.4560574E-06
 -8.2150003E-04    5.1625402E-06
 -8.2100002E-04    4.4998046E-06
 -8.2050002E-04    3.4895272E-06
 -8.2000002E-04    2.1790763E-06
 -8.1950001E-04    6.3973749E-07
 -8.1900001E-04   -1.0368801E-06
 -8.1850000E-04   -2.7440947E-06
 -8.1800000E-04   -4.3667746E-06
 -8.1750000E-04   -5.7889356E-06
 -8.1699999E-04   -6.9018079E-06
 -8.1649999E-04   -7.6118340E-06
 -8.1599999E-04   -7.8480143E-06
 -8.1549998E-04   -7.5680518E-06
 -8.1499998E-04   -6.7627911E-06
 -8.1449997E-04   -5.4585703E-06
 -8.1400003E-04   -3.7172131E-06
 -8.1350002E-04   -1.6335498E-06
 -8.1300002E-04    6.6946382E-07
 -8.1250002E-04    3.0478004E-06
 -8.1200001E-04    5.3451890E-06
 -8.1150001E-04    7.4031823E-06
 -8.1100001E-04    9.0718131E-06
 -8.1050000E-04    1.0220139E-05
 -8.1000000E-04    1.0745935E-05
 -8.0949999E-04    1.0583839E-05
 -8.0899999E-04    9.7113480E-06
 -8.0849999E-04    8.1521530E-06
 -8.0799998E-04    5.9765116E-06
 -8.0749998E-04    3.2985099E-06
 -8.0699997E-04    2.7030549E-07
 -8.0649997E-04   -2.9263801E-06
 -8.0600003E-04   -6.0910315E-06
 -8.0550002E-04   -9.0167368E-06
 -8.0500002E-04   -1.1503434E-05
 -8.0450001E-04   -1.3371166E-05
 -8.0400001E-04   -1.4472471E-05
 -8.0350001E-04   -1.4703067E-05
 -8.0300000E-04   -1.4010095E-05
 -8.0250000E-04   -1.2397310E-05
 -8.0200000E-04   -9.9268163E-06
 -8.0149999E-04   -6.7171222E-06
 -8.0099999E-04   -2.9375769E-06
 -8.0049998E-04    1.2005746E-06
 -7.9999998E-04    5.4560146E-06
 -7.9949998E-04    9.5713795E-06
 -7.9899997E-04    1.3288667E-05
 -7.9850003E-04    1.6365089E-05
 -7.9800002E-04    1.8588395E-05
 -7.9750002E-04    1.9790714E-05
 -7.9700002E-04    1.9860056E-05
 -7.9650001E-04    1.8748682E-05
 -7.9600001E-04    1.6477838E-05
 -7.9550000E-04    1.3138450E-05
 -7.9500000E-04    8.8876996E-06
 -7.9450000E-04    3.9416022E-06
 -7.9399999E-04   -1.4360490E-06
 -7.9349999E-04   -6.9477755E-06
 -7.9299998E-04   -1.2278777E-05
 -7.9249998E-04   -1.7114664E-05
 -7.9199998E-04   -2.1159552E-05
 -7.9149997E-04   -2.4153511E-05
 -7.9100003E-04   -2.5888350E-05
 -7.9050002E-04   -2.6220850E-05
 -7.9000002E-04   -2.5082651E-05
 -7.8950002E-04   -2.2486183E-05
 -7.8900001E-04   -1.8526272E-05
 -7.8850001E-04   -1.3377229E-05
 -7.8800000E-04   -7.2855032E-06
 -7.8750000E-04   -5.5822915E-07
 -7.8700000E-04    6.4518385E-06
 -7.8649999E-04    1.3364252E-05
 -7.8599999E-04    1.9790794E-05
 -7.8549999E-04    2.5356392E-05
 -7.8499998E-04    2.9719957E-05
 -7.8449998E-04    3.2594053E-05
 -7.8399997E-04    3.3762382E-05
 -7.8350003E-04    3.3094053E-05
 -7.8300002E-04    3.0553856E-05
 -7.8250002E-04    2.6207868E-05
 -7.8200002E-04    2.0223877E-05
 -7.8150001E-04    1.2866509E-05
 -7.8100001E-04    4.4869907E-06
 -7.8050001E-04   -4.4920689E-06
 -7.8000000E-04   -1.3596376E-05
 -7.7950000E-04   -2.2323280E-05
 -7.7899999E-04   -3.0167732E-05
 -7.7849999E-04   -3.6649632E-05
 -7.7799999E-04   -4.1341253E-05
 -7.7749998E-04   -4.3893255E-05
 -7.7699998E-04   -4.4057902E-05
 -7.7649998E-04   -4.1708059E-05
 -7.7599997E-04   -3.6850692E-05
 -7.7550003E-04   -2.9633875E-05
 -7.7500002E-04   -2.0346450E-05
 -7.7450002E-04   -9.4099478E-06
 -7.7400001E-04    2.6373348E-06
 -7.7350001E-04    1.5163711E-05
 -7.7300001E-04    2.7474163E-05
 -7.7250000E-04    3.8845861E-05
 -7.7200000E-04    4.8567515E-05
 -7.7150000E-04    5.5980665E-05
 -7.7099999E-04    6.0520597E-05
 -7.7049999E-04    6.1754690E-05
 -7.6999998E-04    5.9415666E-05
 -7.6949998E-04    5.3427535E-05
 -7.6899998E-04    4.3922264E-05
 -7.6849997E-04    3.1245432E-05
 -7.6800003E-04    1.5949829E-05
 -7.6750002E-04   -1.2234957E-06
 -7.6700002E-04   -1.9376534E-05
 -7.6650002E-04   -3.7496993E-05
 -7.6600001E-04   -5.4510605E-05
 -7.6550001E-04   -6.9340662E-05
 -7.6500000E-04   -8.0971680E-05
 -7.6450000E-04   -8.8513785E-05
 -7.6400000E-04   -9.1263806E-05
 -7.6349999E-04   -8.8759305E-05
 -7.6299999E-04   -8.0821810E-05
 -7.6249999E-04   -6.7585686E-05
 -7.6199998E-04   -4.9510170E-05
 -7.6149998E-04   -2.7372438E-05
 -7.6099997E-04   -2.2410420E-06
 -7.6050003E-04    2.4570110E-05
 -7.6000002E-04    5.1565639E-05
 -7.5950002E-04    7.7147721E-05
 -7.5900002E-04    9.9706362E-05
 -7.5850001E-04    1.1771618E-04
 -7.5800001E-04    1.2983396E-04
 -7.5750001E-04    1.3499119E-04
 -7.5700000E-04    1.3247543E-04
 -7.5650000E-04    1.2199472E-04
 -7.5599999E-04    1.0372017E-04
 -7.5549999E-04    7.8302495E-05
 -7.5499999E-04    4.6860059E-05
 -7.5449998E-04    1.0937374E-05
 -7.5399998E-04   -2.7565049E-05
 -7.5349997E-04   -6.6486900E-05
 -7.5299997E-04   -1.0352579E-04
 -7.5250003E-04   -1.3637029E-04
 -7.5200002E-04   -1.6284100E-04
 -7.5150002E-04   -1.8103105E-04
 -7.5100001E-04   -1.8943752E-04
 -7.5050001E-04   -1.8707458E-04
 -7.5000001E-04   -1.7356063E-04
 -7.4950000E-04   -1.4917256E-04
 -7.4900000E-04   -1.1486152E-04
 -7.4850000E-04   -7.2227893E-05
 -7.4799999E-04   -2.3454328E-05
 -7.4749999E-04    2.8800758E-05
 -7.4699998E-04    8.1544604E-05
 -7.4649998E-04    1.3161924E-04
 -7.4599998E-04    1.7588906E-04