 -1.2000001E-03    1.0000000E-24
 -1.1995001E-03    1.0000000E-24
 -1.1990000E-03    1.0000000E-24
 -1.1985000E-03    1.0000000E-24
 -1.1980000E-03    1.0000000E-24
 -1.1975000E-03    1.0000000E-24
 -1.1970000E-03    1.0000000E-24
 -1.1965000E-03    1.0000000E-24
 -1.1960000E-03    1.0000000E-24
 -1.1955000E-03    9.9999874E-25
 -1.1950000E-03    1.0234608E-24
 -1.1945000E-03    1.4672264E-24
 -1.1940000E-03    5.8447600E-24
 -1.1935000E-03    3.5804850E-23
 -1.1930000E-03    1.9547986E-22
 -1.1925000E-03    9.0077273E-22
 -1.1920000E-03    3.5844854E-21
 -1.1915000E-03    1.2613988E-20
 -1.1910000E-03    3.9980166E-20
 -1.1905000E-03    1.1572099E-19
 -1.1900000E-03    3.0913624E-19
 -1.1895000E-03    7.6844128E-19
 -1.1890000E-03    1.7887508E-18
 -1.1885000E-03    3.9181531E-18
 -1.1880000E-03    8.1053311E-18
 -1.1875000E-03    1.5873621E-17
 -1.1870000E-03    2.9467049E-17
 -1.1865000E-03    5.1843773E-17
 -1.1860000E-03    8.6281860E-17
 -1.1854999E-03    1.3520744E-16
 -1.1849999E-03    1.9766328E-16
 -1.1845001E-03    2.6463609E-16
 -1.1840001E-03    3.1131333E-16
 -1.1835000E-03    2.8534872E-16
 -1.1830000E-03    9.0530385E-17
 -1.1825000E-03   -4.3394289E-16
 -1.1820000E-03   -1.5368388E-15
 -1.1815000E-03   -3.5767372E-15
 -1.1810000E-03   -7.0346827E-15
 -1.1805000E-03   -1.2505523E-14
 -1.1800000E-03   -2.0650787E-14
 -1.1795000E-03   -3.2091029E-14
 -1.1790000E-03   -4.7212248E-14
 -1.1785000E-03   -6.5860938E-14
 -1.1780000E-03   -8.6908054E-14
 -1.1775000E-03   -1.0767665E-13
 -1.1770000E-03   -1.2325338E-13
 -1.1765000E-03   -1.2574298E-13
 -1.1760000E-03   -1.0357769E-13
 -1.1755000E-03   -4.1057984E-14
 -1.1750000E-03    8.1627671E-14
 -1.1745000E-03    2.8758848E-13
 -1.1740000E-03    6.0125743E-13
 -1.1735000E-03    1.0448809E-12
 -1.1730000E-03    1.6331448E-12
 -1.1725000E-03    2.3657443E-12
 -1.1720000E-03    3.2179528E-12
 -1.1715000E-03    4.1296081E-12
 -1.1710000E-03    4.9934323E-12
 -1.1704999E-03    5.6442017E-12
 -1.1699999E-03    5.8509404E-12
 -1.1695001E-03    5.3149585E-12
 -1.1690001E-03    3.6770699E-12
 -1.1685000E-03    5.3757281E-13
 -1.1680000E-03   -4.5076035E-12
 -1.1675000E-03   -1.1811970E-11
 -1.1670000E-03   -2.1603662E-11
 -1.1665000E-03   -3.3892000E-11
 -1.1660000E-03   -4.8359906E-11
 -1.1655000E-03   -6.4250563E-11
 -1.1650000E-03   -8.0261207E-11
 -1.1645000E-03   -9.4461397E-11
 -1.1640000E-03   -1.0425687E-10
 -1.1635000E-03   -1.0642298E-10
 -1.1630000E-03   -9.7231743E-11
 -1.1625000E-03   -7.2694142E-11
 -1.1620000E-03   -2.8932658E-11
 -1.1615000E-03    3.7311841E-11
 -1.1610000E-03    1.2805020E-10
 -1.1605000E-03    2.4332286E-10
 -1.1600000E-03    3.8043871E-10
 -1.1595000E-03    5.3325205E-10
 -1.1590000E-03    6.9157674E-10
 -1.1585000E-03    8.4085322E-10
 -1.1580000E-03    9.6219566E-10
 -1.1575000E-03    1.0329387E-09
 -1.1570000E-03    1.0277893E-09
 -1.1565000E-03    9.2064595E-10
 -1.1560000E-03    6.8709854E-10
 -1.1555000E-03    3.0753858E-10
 -1.1549999E-03   -2.2927249E-10
 -1.1544999E-03   -9.2243174E-10
 -1.1540001E-03   -1.7552682E-09
 -1.1535001E-03   -2.6922966E-09
 -1.1530000E-03   -3.6772443E-09
 -1.1525000E-03   -4.6326609E-09
 -1.1520000E-03   -5.4615912E-09
 -1.1515000E-03   -6.0516925E-09
 -1.1510000E-03   -6.2820162E-09
 -1.1505000E-03   -6.0324461E-09
 -1.1500000E-03   -5.1954996E-09
 -1.1495000E-03   -3.6898693E-09
 -1.1490000E-03   -1.4747578E-09
 -1.1485000E-03    1.4362642E-09
 -1.1480000E-03    4.9633906E-09
 -1.1475000E-03    8.9523571E-09
 -1.1470000E-03    1.3171531E-08
 -1.1465000E-03    1.7315772E-08
 -1.1460000E-03    2.1018176E-08
 -1.1455000E-03    2.3870232E-08
 -1.1450000E-03    2.5450168E-08
 -1.1445000E-03    2.5358357E-08
 -1.1440000E-03    2.3257774E-08
 -1.1435000E-03    1.8916488E-08
 -1.1430000E-03    1.2248459E-08
 -1.1425000E-03    3.3483456E-09
 -1.1420000E-03   -7.4841786E-09
 -1.1415000E-03   -1.9734832E-08
 -1.1410000E-03   -3.2683349E-08
 -1.1405000E-03   -4.5432561E-08
 -1.1399999E-03   -5.6958537E-08
 -1.1394999E-03   -6.6180213E-08
 -1.1390001E-03   -7.2044827E-08
 -1.1385001E-03   -7.3623163E-08
 -1.1380001E-03   -7.0206703E-08
 -1.1375000E-03   -6.1397415E-08
 -1.1370000E-03   -4.7180222E-08
 -1.1365000E-03   -2.7968538E-08
 -1.1360000E-03   -4.6149355E-09
 -1.1355000E-03    2.1618675E-08
 -1.1350000E-03    4.9133167E-08
 -1.1345000E-03    7.6104151E-08
 -1.1340000E-03    1.0062649E-07
 -1.1335000E-03    1.2087962E-07
 -1.1330000E-03    1.3529774E-07
 -1.1325000E-03    1.4272651E-07
 -1.1320000E-03    1.4254687E-07
 -1.1315000E-03    1.3474784E-07
 -1.1310000E-03    1.1993394E-07
 -1.1305000E-03    9.9259118E-08
 -1.1300000E-03    7.4286547E-08
 -1.1295000E-03    4.6784070E-08
 -1.1290000E-03    1.8474060E-08
 -1.1285000E-03   -9.2338190E-09
 -1.1280000E-03   -3.5491297E-08
 -1.1275000E-03   -6.0202233E-08
 -1.1270000E-03   -8.4116301E-08
 -1.1265000E-03   -1.0879210E-07
 -1.1260000E-03   -1.3640752E-07
 -1.1255000E-03   -1.6941100E-07
 -1.1250000E-03   -2.1002811E-07
 -1.1244999E-03   -2.5966074E-07
 -1.1239999E-03   -3.1823851E-07
 -1.1235001E-03   -3.8360335E-07
 -1.1230001E-03   -4.5102180E-07
 -1.1225000E-03   -5.1292528E-07
 -1.1220000E-03   -5.5897453E-07
 -1.1215000E-03   -5.7652414E-07
 -1.1210000E-03   -5.5153288E-07
 -1.1205000E-03   -4.6992068E-07
 -1.1200000E-03   -3.1931930E-07
 -1.1195000E-03   -9.1104781E-08
 -1.1190000E-03    2.1746008E-07
 -1.1185000E-03    6.0119697E-07
 -1.1180000E-03    1.0453580E-06
 -1.1175000E-03    1.5246244E-06
 -1.1170000E-03    2.0030218E-06
 -1.1165000E-03    2.4349777E-06
 -1.1160000E-03    2.7676606E-06
 -1.1155000E-03    2.9446437E-06
 -1.1150000E-03    2.9107873E-06
 -1.1145000E-03    2.6180974E-06
 -1.1140000E-03    2.0321520E-06
 -1.1135000E-03    1.1385525E-06
 -1.1130000E-03   -5.1256482E-08
 -1.1125000E-03   -1.4955210E-06
 -1.1120000E-03   -3.1197858E-06
 -1.1115000E-03   -4.8172283E-06
 -1.1110000E-03   -6.4522151E-06
 -1.1105000E-03   -7.8673511E-06
 -1.1100000E-03   -8.8939832E-06
 -1.1094999E-03   -9.3657864E-06
 -1.1089999E-03   -9.1346674E-06
 -1.1084999E-03   -8.0878872E-06
 -1.1080001E-03   -6.1649548E-06
 -1.1075001E-03   -3.3726569E-06
 -1.1070000E-03    2.0354140E-07
 -1.1065000E-03    4.3934242E-06
 -1.1060000E-03    8.9427449E-06
 -1.1055000E-03    1.3521815E-05
 -1.1050000E-03    1.7742435E-05
 -1.1045000E-03    2.1182968E-05
 -1.1040000E-03    2.3420496E-05
 -1.1035000E-03    2.4068257E-05
 -1.1030000E-03    2.2815660E-05
 -1.1025000E-03    1.9467707E-05
 -1.1020000E-03    1.3980010E-05
 -1.1015000E-03    6.4856604E-06
 -1.1010000E-03   -2.6897794E-06
 -1.1005000E-03   -1.3028181E-05
 -1.1000000E-03   -2.3835846E-05
 -1.0995000E-03   -3.4278451E-05
 -1.0990000E-03   -4.3433331E-05
 -1.0985000E-03   -5.0356775E-05
 -1.0980000E-03   -5.4162421E-05
 -1.0975000E-03   -5.4105174E-05
 -1.0970000E-03   -4.9663984E-05
 -1.0965000E-03   -4.0615938E-05
 -1.0960000E-03   -2.7094067E-05
 -1.0955000E-03   -9.6216081E-06
 -1.0950000E-03    1.0883156E-05
 -1.0945000E-03    3.3135570E-05
 -1.0939999E-03    5.5548320E-05
 -1.0934999E-03    7.6328834E-05
 -1.0930001E-03    9.3605748E-05
 -1.0925001E-03    1.0557690E-04
 -1.0920000E-03    1.1066825E-04
 -1.0915000E-03    1.0769124E-04
 -1.0910000E-03    9.5984855E-05
 -1.0905000E-03    7.5528049E-05
 -1.0900000E-03    4.7010046E-05
 -1.0895000E-03    1.1847595E-05
 -1.0890000E-03   -2.7857535E-05
 -1.0885000E-03   -6.9423506E-05
 -1.0880000E-03   -1.0975285E-04
 -1.0875000E-03   -1.4554836E-04
 -1.0870000E-03   -1.7356644E-04
 -1.0865000E-03   -1.9089028E-04
 -1.0860000E-03   -1.9520058E-04
 -1.0855000E-03   -1.8502079E-04
 -1.0850000E-03   -1.5991328E-04
 -1.0845000E-03   -1.2060495E-04
 -1.0840000E-03   -6.9025846E-05
 -1.0835000E-03   -8.2492570E-06
 -1.0830000E-03    5.7669360E-05
 -1.0825000E-03    1.2394952E-04
 -1.0820000E-03    1.8542453E-04
 -1.0815000E-03    2.3693930E-04
 -1.0810000E-03    2.7377770E-04
 -1.0805000E-03    2.9208473E-04
 -1.0800000E-03    2.8924661E-04
 -1.0795000E-03    2.6419296E-04
 -1.0790000E-03    2.1758901E-04
 -1.0784999E-03    1.5189346E-04
 -1.0779999E-03    7.1267175E-05
 -1.0775001E-03   -1.8669421E-05
 -1.0770001E-03   -1.1121955E-04
 -1.0765000E-03   -1.9910991E-04
 -1.0760000E-03   -2.7507104E-04
 -1.0755000E-03   -3.3245239E-04
 -1.0750000E-03   -3.6582068E-04
 -1.0745000E-03   -3.7148743E-04
 -1.0740000E-03   -3.4791461E-04
 -1.0735000E-03   -2.9595560E-04
 -1.0730000E-03   -2.1889979E-04
 -1.0725000E-03   -1.2230541E-04
 -1.0720000E-03   -1.3623314E-05
 -1.0715000E-03    9.8366647E-05
 -1.0710000E-03    2.0426646E-04
 -1.0705000E-03    2.9486214E-04
 -1.0700000E-03    3.6194982E-04
 -1.0695000E-03    3.9911160E-04
 -1.0690000E-03    4.0236794E-04
 -1.0685000E-03    3.7064007E-04
 -1.0680000E-03    3.0596982E-04
 -1.0675000E-03    2.1346283E-04
 -1.0670000E-03    1.0094668E-04
 -1.0665000E-03   -2.1640428E-05
 -1.0660000E-03   -1.4308750E-04
 -1.0655000E-03   -2.5190870E-04
 -1.0650000E-03   -3.3741616E-04
 -1.0645000E-03   -3.9077082E-04
 -1.0640000E-03   -4.0590958E-04
 -1.0634999E-03   -3.8025496E-04
 -1.0629999E-03   -3.1512621E-04
 -1.0625001E-03   -2.1579687E-04
 -1.0620001E-03   -9.1172260E-05
 -1.0615001E-03    4.6903402E-05
 -1.0610000E-03    1.8466498E-04
 -1.0605000E-03    3.0769038E-04
 -1.0600000E-03    4.0230213E-04
 -1.0595000E-03    4.5697912E-04
 -1.0590000E-03    4.6364087E-04
 -1.0585000E-03    4.1867202E-04
 -1.0580000E-03    3.2356911E-04
 -1.0575000E-03    1.8512284E-04
 -1.0570000E-03    1.5087230E-05
 -1.0565000E-03   -1.7066675E-04
 -1.0560000E-03   -3.5346442E-04
 -1.0555000E-03   -5.1351154E-04
 -1.0550000E-03   -6.3181034E-04
 -1.0545000E-03   -6.9213682E-04
 -1.0540000E-03   -6.8289012E-04
 -1.0535000E-03   -5.9862528E-04
 -1.0530000E-03   -4.4109626E-04
 -1.0525000E-03   -2.1967343E-04
 -1.0520000E-03    4.8953319E-05
 -1.0515000E-03    3.4180886E-04
 -1.0510000E-03    6.3136127E-04
 -1.0505000E-03    8.8783103E-04
 -1.0500000E-03    1.0819031E-03
 -1.0495000E-03    1.1876157E-03
 -1.0490000E-03    1.1851625E-03
 -1.0485000E-03    1.0633385E-03
 -1.0479999E-03    8.2137011E-04
 -1.0474999E-03    4.6991065E-04
 -1.0470001E-03    3.1045460E-05
 -1.0465001E-03   -4.6277005E-04
 -1.0460000E-03   -9.7082165E-04
 -1.0455000E-03   -1.4471810E-03
 -1.0450000E-03   -1.8444735E-03
 -1.0445000E-03   -2.1180792E-03
 -1.0440000E-03   -2.2304144E-03
 -1.0435000E-03   -2.1549154E-03
 -1.0430000E-03   -1.8793365E-03
 -1.0425000E-03   -1.4080255E-03
 -1.0420000E-03   -7.6289242E-04
 -1.0415000E-03    1.7099870E-05
 -1.0410000E-03    8.7798433E-04
 -1.0405000E-03    1.7542989E-03
 -1.0400000E-03    2.5738468E-03
 -1.0395000E-03    3.2633741E-03
 -1.0390000E-03    3.7547273E-03
 -1.0385000E-03    3.9909915E-03
 -1.0380000E-03    3.9320714E-03
 -1.0375000E-03    3.5592061E-03
 -1.0370000E-03    2.8779642E-03
 -1.0365000E-03    1.9193729E-03
 -1.0360000E-03    7.3898170E-04
 -1.0355000E-03   -5.8618031E-04
 -1.0350000E-03   -1.9626070E-03
 -1.0345000E-03   -3.2869657E-03
 -1.0340000E-03   -4.4539156E-03
 -1.0335000E-03   -5.3645093E-03
 -1.0329999E-03   -5.9344922E-03
 -1.0324999E-03   -6.1018169E-03
 -1.0319999E-03   -5.8327038E-03
 -1.0315001E-03   -5.1256847E-03
 -1.0310001E-03   -4.0132082E-03
 -1.0305000E-03   -2.5605694E-03
 -1.0300000E-03   -8.6214766E-04
 -1.0295000E-03    9.6485030E-04
 -1.0290000E-03    2.7887209E-03
 -1.0285000E-03    4.4730660E-03
 -1.0280000E-03    5.8873207E-03
 -1.0275000E-03    6.9171726E-03
 -1.0270000E-03    7.4740299E-03
 -1.0265000E-03    7.5027426E-03
 -1.0260000E-03    6.9868946E-03
 -1.0255000E-03    5.9511825E-03
 -1.0250000E-03    4.4606049E-03
 -1.0245000E-03    2.6164532E-03
 -1.0240000E-03    5.4934394E-04
 -1.0235000E-03   -1.5902150E-03
 -1.0230000E-03   -3.6430203E-03
 -1.0225000E-03   -5.4532755E-03
 -1.0220000E-03   -6.8806577E-03
 -1.0215000E-03   -7.8113796E-03
 -1.0210000E-03   -8.1673721E-03
 -1.0205000E-03   -7.9128165E-03
 -1.0200000E-03   -7.0574945E-03
 -1.0195000E-03   -5.6566461E-03
 -1.0190000E-03   -3.8073205E-03
 -1.0185000E-03   -1.6414734E-03
 -1.0180000E-03    6.8366900E-04
 -1.0174999E-03    2.9972452E-03
 -1.0169999E-03    5.1274910E-03
 -1.0165001E-03    6.9145905E-03
 -1.0160001E-03    8.2226489E-03
 -1.0155000E-03    8.9498647E-03
 -1.0150000E-03    9.0361377E-03
 -1.0145000E-03    8.4675308E-03
 -1.0140000E-03    7.2772708E-03
 -1.0135000E-03    5.5432525E-03
 -1.0130000E-03    3.3822572E-03
 -1.0125000E-03    9.4137451E-04
 -1.0120000E-03   -1.6126961E-03
 -1.0115000E-03   -4.1056233E-03
 -1.0110000E-03   -6.3677919E-03
 -1.0105000E-03   -8.2461005E-03
 -1.0100000E-03   -9.6143540E-03
 -1.0095000E-03   -1.0381527E-02
 -1.0090000E-03   -1.0497370E-02
 -1.0085000E-03   -9.9550150E-03
 -1.0080000E-03   -8.7905228E-03
 -1.0075000E-03   -7.0795007E-03
 -1.0070000E-03   -4.9311453E-03
 -1.0065000E-03   -2.4802494E-03
 -1.0060000E-03    1.2219689E-04
 -1.0055000E-03    2.7190759E-03
 -1.0050000E-03    5.1571829E-03
 -1.0045000E-03    7.2965492E-03
 -1.0040000E-03    9.0184845E-03
 -1.0035000E-03    1.0231881E-02
 -1.0030000E-03    1.0877494E-02
 -1.0025000E-03    1.0930070E-02
 -1.0019999E-03    1.0398339E-02
 -1.0014999E-03    9.3230437E-03
 -1.0010001E-03    7.7732704E-03
 -1.0005001E-03    5.8414433E-03
 -1.0000000E-03    3.6373648E-03
 -9.9950004E-04    1.2817170E-03
 -9.9900004E-04   -1.1005941E-03
 -9.9850004E-04   -3.3869043E-03
 -9.9800003E-04   -5.4627783E-03
 -9.9750003E-04   -7.2272867E-03
 -9.9700002E-04   -8.5974112E-03
 -9.9650002E-04   -9.5114596E-03
 -9.9600002E-04   -9.9314349E-03
 -9.9550001E-04   -9.8443134E-03
 -9.9500001E-04   -9.2622470E-03
 -9.9450001E-04   -8.2216933E-03
 -9.9400000E-04   -6.7815166E-03
 -9.9350000E-04   -5.0201090E-03
 -9.9299999E-04   -3.0316191E-03
 -9.9249999E-04   -9.2139700E-04
 -9.9199999E-04    1.1991911E-03
 -9.9149998E-04    3.2183817E-03
 -9.9099998E-04    5.0298166E-03
 -9.9049998E-04    6.5382491E-03
 -9.8999997E-04    7.6648276E-03
 -9.8949997E-04    8.3516343E-03
 -9.8899996E-04    8.5651511E-03
 -9.8849996E-04    8.2983766E-03
 -9.8799996E-04    7.5713820E-03
 -9.8749995E-04    6.4301901E-03
 -9.8699995E-04    4.9439785E-03
 -9.8649994E-04    3.2007373E-03
 -9.8600006E-04    1.3016489E-03
 -9.8550005E-04   -6.4543291E-04
 -9.8500005E-04   -2.5329259E-03
 -9.8450005E-04   -4.2603510E-03
 -9.8400004E-04   -5.7405075E-03
 -9.8350004E-04   -6.9044884E-03
 -9.8300003E-04   -7.7051208E-03
 -9.8250003E-04   -8.1185540E-03
 -9.8200003E-04   -8.1438832E-03
 -9.8150002E-04   -7.8008999E-03
 -9.8100002E-04   -7.1262252E-03
 -9.8050002E-04   -6.1682793E-03
 -9.8000001E-04   -4.9816496E-03
 -9.7950001E-04   -3.6215053E-03
 -9.7900000E-04   -2.1387099E-03
 -9.7850000E-04   -5.7621999E-04
 -9.7800000E-04    1.0327779E-03
 -9.7749999E-04    2.6647355E-03
 -9.7699999E-04    4.3035941E-03
 -9.7649998E-04    5.9368596E-03
 -9.7599998E-04    7.5503741E-03
 -9.7549998E-04    9.1224844E-03
 -9.7499997E-04    1.0618443E-02
 -9.7450003E-04    1.1985942E-02
 -9.7400002E-04    1.3152641E-02
 -9.7350002E-04    1.4026400E-02
 -9.7300002E-04    1.4498702E-02
 -9.7250001E-04    1.4451437E-02
 -9.7200001E-04    1.3766792E-02
 -9.7150001E-04    1.2339690E-02
 -9.7100000E-04    1.0091768E-02
 -9.7050000E-04    6.9856369E-03
 -9.6999999E-04    3.0379326E-03
 -9.6949999E-04   -1.6703836E-03
 -9.6899999E-04   -6.9879452E-03
 -9.6849998E-04   -1.2692354E-02
 -9.6799998E-04   -1.8495837E-02
 -9.6749997E-04   -2.4057534E-02
 -9.6700003E-04   -2.9002124E-02
 -9.6650003E-04   -3.2943942E-02
 -9.6600002E-04   -3.5515051E-02
 -9.6550002E-04   -3.6395274E-02
 -9.6500001E-04   -3.5341851E-02
 -9.6450001E-04   -3.2216035E-02
 -9.6400001E-04   -2.7004205E-02
 -9.6350000E-04   -1.9831127E-02
 -9.6300000E-04   -1.0963607E-02
 -9.6249999E-04   -8.0340041E-04
 -9.6199999E-04    1.0130888E-02
 -9.6149999E-04    2.1232288E-02
 -9.6099998E-04    3.1842794E-02
 -9.6049998E-04    4.1297112E-02
 -9.5999998E-04    4.8969809E-02
 -9.5949997E-04    5.4322243E-02
 -9.5900003E-04    5.6945581E-02
 -9.5850002E-04    5.6596328E-02
 -9.5800002E-04    5.3221125E-02
 -9.5750001E-04    4.6968397E-02
 -9.5700001E-04    3.8185362E-02
 -9.5650001E-04    2.7400030E-02
 -9.5600000E-04    1.5289018E-02
 -9.5550000E-04    2.6332138E-03
 -9.5500000E-04   -9.7356439E-03
 -9.5449999E-04   -2.0993581E-02
 -9.5399999E-04   -3.0383751E-02
 -9.5349998E-04   -3.7271939E-02
 -9.5299998E-04   -4.1193802E-02
 -9.5249998E-04   -4.1889958E-02
 -9.5199997E-04   -3.9326075E-02
 -9.5150003E-04   -3.3696033E-02
 -9.5100002E-04   -2.5407849E-02
 -9.5050002E-04   -1.5053203E-02
 -9.5000002E-04   -3.3628959E-03
 -9.4950001E-04    8.8483738E-03
 -9.4900001E-04    2.0743554E-02
 -9.4850000E-04    3.1526297E-02
 -9.4800000E-04    4.0500473E-02
 -9.4750000E-04    4.7121484E-02
 -9.4699999E-04    5.1035259E-02
 -9.4649999E-04    5.2101929E-02
 -9.4599999E-04    5.0402388E-02
 -9.4549998E-04    4.6227295E-02
 -9.4499998E-04    4.0049668E-02
 -9.4449997E-04    3.2483369E-02
 -9.4400003E-04    2.4231054E-02
 -9.4350002E-04    1.6025914E-02
 -9.4300002E-04    8.5720550E-03
 -9.4250002E-04    2.4883235E-03
 -9.4200001E-04   -1.7398513E-03
 -9.4150001E-04   -3.7968541E-03
 -9.4100001E-04   -3.5587586E-03
 -9.4050000E-04   -1.0991753E-03
 -9.4000000E-04    3.3210828E-03
 -9.3949999E-04    9.2793340E-03
 -9.3899999E-04    1.6228974E-02
 -9.3849999E-04    2.3546666E-02
 -9.3799998E-04    3.0584726E-02
 -9.3749998E-04    3.6724336E-02
 -9.3699998E-04    4.1425284E-02
 -9.3649997E-04    4.4268318E-02
 -9.3600003E-04    4.4986933E-02
 -9.3550002E-04    4.3486439E-02
 -9.3500002E-04    3.9849039E-02
 -9.3450001E-04    3.4325227E-02
 -9.3400001E-04    2.7312409E-02
 -9.3350001E-04    1.9323049E-02
 -9.3300000E-04    1.0945124E-02
 -9.3250000E-04    2.7982208E-03
 -9.3200000E-04   -4.5111747E-03
 -9.3149999E-04   -1.0431889E-02
 -9.3099999E-04   -1.4504738E-02
 -9.3049998E-04   -1.6391329E-02
 -9.2999998E-04   -1.5893368E-02
 -9.2949998E-04   -1.2961701E-02
 -9.2899997E-04   -7.6951399E-03
 -9.2850003E-04   -3.2987751E-04
 -9.2800002E-04    8.7790778E-03
 -9.2750002E-04    1.9182600E-02
 -9.2700002E-04    3.0366151E-02
 -9.2650001E-04    4.1780360E-02
 -9.2600001E-04    5.2871432E-02
 -9.2550000E-04    6.3109681E-02
 -9.2500000E-04    7.2014749E-02
 -9.2450000E-04    7.9176627E-02
 -9.2399999E-04    8.4271908E-02
 -9.2349999E-04    8.7075025E-02
 -9.2299999E-04    8.7464795E-02
 -9.2249998E-04    8.5426383E-02
 -9.2199998E-04    8.1049219E-02
 -9.2149997E-04    7.4521355E-02
 -9.2100003E-04    6.6120610E-02
 -9.2050002E-04    5.6202866E-02
 -9.2000002E-04    4.5187838E-02
 -9.1950002E-04    3.3542465E-02
 -9.1900001E-04    2.1762295E-02
 -9.1850001E-04    1.0351088E-02
 -9.1800001E-04   -2.0079881E-04
 -9.1750000E-04   -9.4386153E-03
 -9.1700000E-04   -1.6965097E-02
 -9.1649999E-04   -2.2460917E-02
 -9.1599999E-04   -2.5702469E-02
 -9.1549999E-04   -2.6575645E-02
 -9.1499998E-04   -2.5084358E-02
 -9.1449998E-04   -2.1352692E-02
 -9.1399997E-04   -1.5619971E-02
 -9.1349997E-04   -8.2284240E-03
 -9.1300003E-04    3.9627642E-04
 -9.1250002E-04    9.7707333E-03
 -9.1200002E-04    1.9384336E-02
 -9.1150001E-04    2.8732561E-02
 -9.1100001E-04    3.7350666E-02
 -9.1050001E-04    4.4845168E-02
 -9.1000000E-04    5.0920494E-02
 -9.0950000E-04    5.5398513E-02
 -9.0899999E-04    5.8228992E-02
 -9.0849999E-04    5.9489902E-02
 -9.0799999E-04    5.9377212E-02
 -9.0749998E-04    5.8184769E-02
 -9.0699998E-04    5.6275811E-02
 -9.0649998E-04    5.4048412E-02
 -9.0599997E-04    5.1897883E-02
 -9.0550003E-04    5.0179426E-02
 -9.0500002E-04    4.9174543E-02
 -9.0450002E-04    4.9064383E-02
 -9.0400001E-04    4.9912624E-02
 -9.0350001E-04    5.1659752E-02
 -9.0300001E-04    5.4129429E-02
 -9.0250000E-04    5.7046689E-02
 -9.0200000E-04    6.0066272E-02
 -9.0150000E-04    6.2808663E-02
 -9.0099999E-04    6.4900354E-02
 -9.0049999E-04    6.6014484E-02
 -8.9999998E-04    6.5907821E-02
 -8.9949998E-04    6.4450130E-02
 -8.9899998E-04    6.1643027E-02
 -8.9849997E-04    5.7625804E-02
 -8.9800003E-04    5.2667446E-02
 -8.9750002E-04    4.7145121E-02
 -8.9700002E-04    4.1510761E-02
 -8.9650002E-04    3.6248785E-02
 -8.9600001E-04    3.1828821E-02
 -8.9550001E-04    2.8657928E-02
 -8.9500000E-04    2.7037121E-02
 -8.9450000E-04    2.7126594E-02
 -8.9400000E-04    2.8923459E-02
 -8.9349999E-04    3.2254621E-02
 -8.9299999E-04    3.6786091E-02
 -8.9249999E-04    4.2048410E-02
 -8.9199998E-04    4.7476362E-02
 -8.9149998E-04    5.2459635E-02
 -8.9099997E-04    5.6399938E-02
 -8.9050003E-04    5.8769397E-02
 -8.9000002E-04    5.9164666E-02
 -8.8950002E-04    5.7351425E-02
 -8.8900002E-04    5.3294886E-02
 -8.8850001E-04    4.7172762E-02
 -8.8800001E-04    3.9369144E-02
 -8.8750001E-04    3.0449115E-02
 -8.8700000E-04    2.1115959E-02
 -8.8650000E-04    1.2154398E-02
 -8.8599999E-04    4.3647205E-03
 -8.8549999E-04   -1.5064266E-03
 -8.8499999E-04   -4.8323344E-03
 -8.8449998E-04   -5.1635210E-03
 -8.8399998E-04   -2.2706490E-03
 -8.8349998E-04    3.8310820E-03
 -8.8299997E-04    1.2878587E-02
 -8.8250003E-04    2.4379212E-02
 -8.8200002E-04    3.7649371E-02
 -8.8150002E-04    5.1870275E-02
 -8.8100001E-04    6.6155925E-02
 -8.8050001E-04    7.9627372E-02
 -8.8000001E-04    9.1486655E-02
 -8.7950000E-04    0.1010837    
 -8.7900000E-04    0.1079701    
 -8.7850000E-04    0.1119350    
 -8.7799999E-04    0.1130198    
 -8.7749999E-04    0.1115097    
 -8.7699998E-04    0.1079038    
 -8.7649998E-04    0.1028655    
 -8.7599998E-04    9.7158045E-02
 -8.7549997E-04    9.1571338E-02
 -8.7500003E-04    8.6845689E-02
 -8.7450002E-04    8.3600558E-02
 -8.7400002E-04    8.2273997E-02
 -8.7350002E-04    8.3078705E-02
 -8.7300001E-04    8.5978553E-02
 -8.7250001E-04    9.0687864E-02
 -8.7200000E-04    9.6693717E-02
 -8.7150000E-04    0.1032992    
 -8.7100000E-04    0.1096844    
 -8.7049999E-04    0.1149785    
 -8.6999999E-04    0.1183393    
 -8.6949999E-04    0.1190303    
 -8.6899998E-04    0.1164903    
 -8.6849998E-04    0.1103906    
 -8.6799997E-04    0.1006719    
 -8.6750003E-04    8.7561041E-02
 -8.6700002E-04    7.1564004E-02
 -8.6650002E-04    5.3436991E-02
 -8.6600002E-04    3.4137364E-02
 -8.6550001E-04    1.4758928E-02
 -8.6500001E-04   -3.5434265E-03
 -8.6450001E-04   -1.9633614E-02
 -8.6400000E-04   -3.2472588E-02
 -8.6350000E-04   -4.1189011E-02
 -8.6299999E-04   -4.5137219E-02
 -8.6249999E-04   -4.3938540E-02
 -8.6199999E-04   -3.7503481E-02
 -8.6149998E-04   -2.6033875E-02
 -8.6099998E-04   -1.0005640E-02
 -8.6049997E-04    9.8656937E-03
 -8.5999997E-04    3.2673448E-02
 -8.5950003E-04    5.7378065E-02
 -8.5900002E-04    8.2870610E-02
 -8.5850002E-04    0.1080369    
 -8.5800001E-04    0.1318177    
 -8.5750001E-04    0.1532620    
 -8.5700001E-04    0.1715698    
 -8.5650000E-04    0.1861226    
 -8.5600000E-04    0.1965022    
 -8.5549999E-04    0.2024962    
 -8.5499999E-04    0.2040928    
 -8.5449999E-04    0.2014660    
 -8.5399998E-04    0.1949532    
 -8.5349998E-04    0.1850284    
 -8.5299998E-04    0.1722717    
 -8.5249997E-04    0.1573389    
 -8.5200003E-04    0.1409312    
 -8.5150002E-04    0.1237675    
 -8.5100002E-04    0.1065584    
 -8.5050002E-04    8.9983918E-02
 -8.5000001E-04    7.4673325E-02
 -8.4950001E-04    6.1188307E-02
 -8.4900000E-04    5.0007906E-02
 -8.4850000E-04    4.1515894E-02
 -8.4800000E-04    3.5990223E-02
 -8.4749999E-04    3.3594720E-02
 -8.4699999E-04    3.4373429E-02
 -8.4649998E-04    3.8248070E-02
 -8.4599998E-04    4.5019284E-02
 -8.4549998E-04    5.4372162E-02
 -8.4499997E-04    6.5886602E-02
 -8.4450003E-04    7.9052649E-02
 -8.4400002E-04    9.3290702E-02
 -8.4350002E-04    0.1079760    
 -8.4300002E-04    0.1224668    
 -8.4250001E-04    0.1361340    
 -8.4200001E-04    0.1483922    
 -8.4150000E-04    0.1587287    
 -8.4100000E-04    0.1667300    
 -8.4050000E-04    0.1721029    
 -8.3999999E-04    0.1746895    
 -8.3949999E-04    0.1744754    
 -8.3899999E-04    0.1715894    
 -8.3849998E-04    0.1662953    
 -8.3799998E-04    0.1589764    
 -8.3749997E-04    0.1501138    
 -8.3700003E-04    0.1402596    
 -8.3650002E-04    0.1300065    
 -8.3600002E-04    0.1199569    
 -8.3550002E-04    0.1106916    
 -8.3500001E-04    0.1027419    
 -8.3450001E-04    9.6564665E-02
 -8.3400001E-04    9.2522584E-02
 -8.3350000E-04    9.0870559E-02
 -8.3300000E-04    9.1747627E-02
 -8.3249999E-04    9.5174991E-02
 -8.3199999E-04    0.1010596    
 -8.3149999E-04    0.1092024    
 -8.3099998E-04    0.1193107    
 -8.3049998E-04    0.1310134    
 -8.2999998E-04    0.1438785    
 -8.2949997E-04    0.1574317    
 -8.2900003E-04    0.1711751    
 -8.2850002E-04    0.1846066    
 -8.2800002E-04    0.1972381    
 -8.2750001E-04    0.2086128    
 -8.2700001E-04    0.2183212    
 -8.2650001E-04    0.2260157    
 -8.2600000E-04    0.2314233    
 -8.2550000E-04    0.2343561    
 -8.2500000E-04    0.2347189    
 -8.2449999E-04    0.2325149    
 -8.2399999E-04    0.2278470    
 -8.2349998E-04    0.2209161    
 -8.2299998E-04    0.2120157    
 -8.2249998E-04    0.2015222    
 -8.2199997E-04    0.1898811    
 -8.2150003E-04    0.1775907    
 -8.2100002E-04    0.1651818    
 -8.2050002E-04    0.1531963    
 -8.2000002E-04    0.1421635    
 -8.1950001E-04    0.1325775    
 -8.1900001E-04    0.1248752    
 -8.1850000E-04    0.1194168    
 -8.1800000E-04    0.1164698    
 -8.1750000E-04    0.1161968    
 -8.1699999E-04    0.1186487    
 -8.1649999E-04    0.1237630    
 -8.1599999E-04    0.1313668    
 -8.1549998E-04    0.1411856    
 -8.1499998E-04    0.1528557    
 -8.1449997E-04    0.1659407    
 -8.1400003E-04    0.1799512    
 -8.1350002E-04    0.1943660    
 -8.1300002E-04    0.2086540    
 -8.1250002E-04    0.2222973    
 -8.1200001E-04    0.2348121    
 -8.1150001E-04    0.2457692    
 -8.1100001E-04    0.2548112    
 -8.1050000E-04    0.2616680    
 -8.1000000E-04    0.2661675    
 -8.0949999E-04    0.2682434    
 -8.0899999E-04    0.2679381    
 -8.0849999E-04    0.2654006    
 -8.0799998E-04    0.2608804    
 -8.0749998E-04    0.2547145    
 -8.0699997E-04    0.2473121    
 -8.0649997E-04    0.2391319    
 -8.0600003E-04    0.2306579    
 -8.0550002E-04    0.2223714    
 -8.0500002E-04    0.2147224    
 -8.0450001E-04    0.2081016    
 -8.0400001E-04    0.2028149    
 -8.0350001E-04    0.1990628    
 -8.0300000E-04    0.1969269    
 -8.0250000E-04    0.1963645    
 -8.0200000E-04    0.1972130    
 -8.0149999E-04    0.1992044    
 -8.0099999E-04    0.2019900    
 -8.0049998E-04    0.2051728    
 -7.9999998E-04    0.2083472    
 -7.9949998E-04    0.2111412    
 -7.9899997E-04    0.2132587    
 -7.9850003E-04    0.2145169    
 -7.9800002E-04    0.2148760    
 -7.9750002E-04    0.2144561    
 -7.9700002E-04    0.2135398    
 -7.9650001E-04    0.2125583    
 -7.9600001E-04    0.2120611    
 -7.9550000E-04    0.2126702    
 -7.9500000E-04    0.2150223    
 -7.9450000E-04    0.2197044    
 -7.9399999E-04    0.2271862    
 -7.9349999E-04    0.2377584    
 -7.9299998E-04    0.2514819    
 -7.9249998E-04    0.2681541    
 -7.9199998E-04    0.2872976    
 -7.9149997E-04    0.3081740    
 -7.9100003E-04    0.3298246    
 -7.9050002E-04    0.3511350    
 -7.9000002E-04    0.3709212    
 -7.8950002E-04    0.3880295    
 -7.8900001E-04    0.4014424    
 -7.8850001E-04    0.4103817    
 -7.8800000E-04    0.4143970    
 -7.8750000E-04    0.4134320    
 -7.8700000E-04    0.4078601    
 -7.8649999E-04    0.3984829    
 -7.8599999E-04    0.3864900    
 -7.8549999E-04    0.3733811    
 -7.8499998E-04    0.3608529    
 -7.8449998E-04    0.3506622    
 -7.8399997E-04    0.3444727    
 -7.8350003E-04    0.3437004    
 -7.8300002E-04    0.3493704    
 -7.8250002E-04    0.3619996    
 -7.8200002E-04    0.3815162    
 -7.8150001E-04    0.4072259    
 -7.8100001E-04    0.4378303    
 -7.8050001E-04    0.4714986    
 -7.8000000E-04    0.5059885    
 -7.7950000E-04    0.5388081    
 -7.7899999E-04    0.5674079    
 -7.7849999E-04    0.5893852    
 -7.7799999E-04    0.6026856    
 -7.7749998E-04    0.6057839    
 -7.7699998E-04    0.5978274    
 -7.7649998E-04    0.5787297    
 -7.7599997E-04    0.5492037    
 -7.7550003E-04    0.5107321    
 -7.7500002E-04    0.4654745    
 -7.7450002E-04    0.4161182    
 -7.7400001E-04    0.3656861    
 -7.7350001E-04    0.3173148    
 -7.7300001E-04    0.2740234    
 -7.7250000E-04    0.2384906    
 -7.7200000E-04    0.2128609    
 -7.7150000E-04    0.1985930    
 -7.7099999E-04    0.1963657    
 -7.7049999E-04    0.2060462    
 -7.6999998E-04    0.2267232    
 -7.6949998E-04    0.2568013    
 -7.6899998E-04    0.2941451    
 -7.6849997E-04    0.3362616    
 -7.6800003E-04    0.3805017    
 -7.6750002E-04    0.4242638    
 -7.6700002E-04    0.4651817    
 -7.6650002E-04    0.5012801    
 -7.6600001E-04    0.5310861    
 -7.6550001E-04    0.5536898    
 -7.6500000E-04    0.5687508    
 -7.6450000E-04    0.5764543    
 -7.6400000E-04    0.5774252    
 -7.6349999E-04    0.5726112    
 -7.6299999E-04    0.5631512    
 -7.6249999E-04    0.5502420    
 -7.6199998E-04    0.5350200    
 -7.6149998E-04    0.5184690    
 -7.6099997E-04    0.5013632    
 -7.6050003E-04    0.4842485    
 -7.6000002E-04    0.4674627    
 -7.5950002E-04    0.4511873    
 -7.5900002E-04    0.4355226    
 -7.5850001E-04    0.4205724    
 -7.5800001E-04    0.4065261    
 -7.5750001E-04    0.3937236    
 -7.5700000E-04    0.3826921    
 -7.5650000E-04    0.3741481    
 -7.5599999E-04    0.3689600    
 -7.5549999E-04    0.3680738    
 -7.5499999E-04    0.3724098    
 -7.5449998E-04    0.3827396    
 -7.5399998E-04    0.3995608    
 -7.5349997E-04    0.4229821    
 -7.5299997E-04    0.4526379    
 -7.5250003E-04    0.4876444    
 -7.5200002E-04    0.5266069    
 -7.5150002E-04    0.5676839    
 -7.5100001E-04    0.6087049    
 -7.5050001E-04    0.6473357    
 -7.5000001E-04    0.6812757    
 -7.4950000E-04    0.7084702    
 -7.4900000E-04    0.7273160    
 -7.4850000E-04    0.7368387    
 -7.4799999E-04    0.7368208    
 -7.4749999E-04    0.7278655    
 -7.4699998E-04    0.7113844    
 -7.4649998E-04    0.6895070    
 -7.4599998E-04    0.6649165    