 -1.2000001E-03    1.0000000E-24
 -1.1995001E-03    1.0000000E-24
 -1.1990000E-03    1.0000000E-24
 -1.1985000E-03    1.0000000E-24
 -1.1980000E-03    1.0000000E-24
 -1.1975000E-03    1.0000000E-24
 -1.1970000E-03    1.0000000E-24
 -1.1965000E-03    1.0000000E-24
 -1.1960000E-03    1.0000000E-24
 -1.1955000E-03    1.0000001E-24
 -1.1950000E-03    1.0000002E-24
 -1.1945000E-03    1.0000002E-24
 -1.1940000E-03    1.0000002E-24
 -1.1935000E-03    1.0000002E-24
 -1.1930000E-03    1.0000002E-24
 -1.1925000E-03    1.0000002E-24
 -1.1920000E-03    1.0000002E-24
 -1.1915000E-03    1.0000002E-24
 -1.1910000E-03    1.0000002E-24
 -1.1905000E-03    1.0000002E-24
 -1.1900000E-03    1.0000002E-24
 -1.1895000E-03    1.0000002E-24
 -1.1890000E-03    1.0000002E-24
 -1.1885000E-03    1.0000002E-24
 -1.1880000E-03    1.0000002E-24
 -1.1875000E-03    1.0000002E-24
 -1.1870000E-03    1.0000002E-24
 -1.1865000E-03    1.0000002E-24
 -1.1860000E-03    1.0000002E-24
 -1.1854999E-03    1.0000002E-24
 -1.1849999E-03    1.0000001E-24
 -1.1845001E-03    1.0000000E-24
 -1.1840001E-03    1.0000000E-24
 -1.1835000E-03    1.0000000E-24
 -1.1830000E-03    1.0000000E-24
 -1.1825000E-03    1.0000000E-24
 -1.1820000E-03    1.0000000E-24
 -1.1815000E-03    1.0000000E-24
 -1.1810000E-03    1.0000000E-24
 -1.1805000E-03    1.0000000E-24
 -1.1800000E-03    1.0000000E-24
 -1.1795000E-03    1.0000001E-24
 -1.1790000E-03    1.0000002E-24
 -1.1785000E-03    1.0000003E-24
 -1.1780000E-03    1.0000003E-24
 -1.1775000E-03    1.0000003E-24
 -1.1770000E-03    1.0000003E-24
 -1.1765000E-03    1.0000003E-24
 -1.1760000E-03    1.0000003E-24
 -1.1755000E-03    1.0000003E-24
 -1.1750000E-03    1.0000002E-24
 -1.1745000E-03    1.0000001E-24
 -1.1740000E-03    1.0000000E-24
 -1.1735000E-03    9.9999992E-25
 -1.1730000E-03    9.9999992E-25
 -1.1725000E-03    9.9999992E-25
 -1.1720000E-03    9.9999992E-25
 -1.1715000E-03    9.9999992E-25
 -1.1710000E-03    9.9999992E-25
 -1.1704999E-03    9.9999992E-25
 -1.1699999E-03    9.9999992E-25
 -1.1695001E-03    9.9999992E-25
 -1.1690001E-03    1.0000000E-24
 -1.1685000E-03    1.0000001E-24
 -1.1680000E-03    1.0000002E-24
 -1.1675000E-03    1.0000003E-24
 -1.1670000E-03    1.0000004E-24
 -1.1665000E-03    1.0000004E-24
 -1.1660000E-03    1.0000004E-24
 -1.1655000E-03    1.0000004E-24
 -1.1650000E-03    1.0000004E-24
 -1.1645000E-03    1.0000003E-24
 -1.1640000E-03    1.0000002E-24
 -1.1635000E-03    1.0000001E-24
 -1.1630000E-03    9.9999992E-25
 -1.1625000E-03    9.9999972E-25
 -1.1620000E-03    9.9999953E-25
 -1.1615000E-03    9.9999933E-25
 -1.1610000E-03    9.9999933E-25
 -1.1605000E-03    9.9999963E-25
 -1.1600000E-03    1.0000005E-24
 -1.1595000E-03    1.0000023E-24
 -1.1590000E-03    1.0000055E-24
 -1.1585000E-03    1.0000110E-24
 -1.1580000E-03    1.0000195E-24
 -1.1575000E-03    1.0000322E-24
 -1.1570000E-03    1.0000499E-24
 -1.1565000E-03    1.0000735E-24
 -1.1560000E-03    1.0001028E-24
 -1.1555000E-03    1.0001362E-24
 -1.1549999E-03    1.0001697E-24
 -1.1544999E-03    1.0001955E-24
 -1.1540001E-03    1.0002000E-24
 -1.1535001E-03    1.0001625E-24
 -1.1530000E-03    1.0000529E-24
 -1.1525000E-03    9.9982972E-25
 -1.1520000E-03    9.9944062E-25
 -1.1515000E-03    9.9882284E-25
 -1.1510000E-03    9.9790885E-25
 -1.1505000E-03    9.9663563E-25
 -1.1500000E-03    9.9496127E-25
 -1.1495000E-03    9.9289051E-25
 -1.1490000E-03    9.9051052E-25
 -1.1485000E-03    9.8803823E-25
 -1.1480000E-03    9.8587842E-25
 -1.1475000E-03    9.8468981E-25
 -1.1470000E-03    9.8545214E-25
 -1.1465000E-03    9.8952276E-25
 -1.1460000E-03    9.9866537E-25
 -1.1455000E-03    1.0150256E-24
 -1.1450000E-03    1.0410214E-24
 -1.1445000E-03    1.0791103E-24
 -1.1440000E-03    1.1313900E-24
 -1.1435000E-03    1.1989901E-24
 -1.1430000E-03    1.2812231E-24
 -1.1425000E-03    1.3744791E-24
 -1.1420000E-03    1.4708838E-24
 -1.1415000E-03    1.5567925E-24
 -1.1410000E-03    1.6112587E-24
 -1.1405000E-03    1.6047129E-24
 -1.1399999E-03    1.4981891E-24
 -1.1394999E-03    1.2435527E-24
 -1.1390001E-03    7.8529787E-25
 -1.1385001E-03    6.4566133E-26
 -1.1380001E-03   -9.7392501E-25
 -1.1375000E-03   -2.3714056E-24
 -1.1370000E-03   -4.1405652E-24
 -1.1365000E-03   -6.2469359E-24
 -1.1360000E-03   -8.5865632E-24
 -1.1355000E-03   -1.0961185E-23
 -1.1350000E-03   -1.3053126E-23
 -1.1345000E-03   -1.4403381E-23
 -1.1340000E-03   -1.4397721E-23
 -1.1335000E-03   -1.2267081E-23
 -1.1330000E-03   -7.1097280E-24
 -1.1325000E-03    2.0564902E-24
 -1.1320000E-03    1.6203389E-23
 -1.1315000E-03    3.6155878E-23
 -1.1310000E-03    6.2404798E-23
 -1.1305000E-03    9.4868936E-23
 -1.1300000E-03    1.3261263E-22
 -1.1295000E-03    1.7353448E-22
 -1.1290000E-03    2.1405399E-22
 -1.1285000E-03    2.4883601E-22
 -1.1280000E-03    2.7060670E-22
 -1.1275000E-03    2.7012796E-22
 -1.1270000E-03    2.3640831E-22
 -1.1265000E-03    1.5723312E-22
 -1.1260000E-03    2.0094832E-23
 -1.1255000E-03   -1.8641039E-22
 -1.1250000E-03   -4.7068218E-22
 -1.1244999E-03   -8.3571909E-22
 -1.1239999E-03   -1.2763001E-21
 -1.1235001E-03   -1.7758988E-21
 -1.1230001E-03   -2.3035875E-21
 -1.1225000E-03   -2.8112995E-21
 -1.1220000E-03   -3.2319235E-21
 -1.1215000E-03   -3.4788127E-21
 -1.1210000E-03   -3.4473576E-21
 -1.1205000E-03   -3.0192922E-21
 -1.1200000E-03   -2.0703672E-21
 -1.1195000E-03   -4.8187194E-22
 -1.1190000E-03    1.8437561E-21
 -1.1185000E-03    4.9633769E-21
 -1.1180000E-03    8.8702947E-21
 -1.1175000E-03    1.3469382E-20
 -1.1170000E-03    1.8552172E-20
 -1.1165000E-03    2.3774673E-20
 -1.1160000E-03    2.8641426E-20
 -1.1155000E-03    3.2499858E-20
 -1.1150000E-03    3.4549525E-20
 -1.1145000E-03    3.3870658E-20
 -1.1140000E-03    2.9476161E-20
 -1.1135000E-03    2.0389986E-20
 -1.1130000E-03    5.7531155E-21
 -1.1125000E-03   -1.5044254E-20
 -1.1120000E-03   -4.2208904E-20
 -1.1115000E-03   -7.5377738E-20
 -1.1110000E-03   -1.1345079E-19
 -1.1105000E-03   -1.5444134E-19
 -1.1100000E-03   -1.9536469E-19
 -1.1094999E-03   -2.3219001E-19
 -1.1089999E-03   -2.5988169E-19
 -1.1084999E-03   -2.7255581E-19
 -1.1080001E-03   -2.6377404E-19
 -1.1075001E-03   -2.2699064E-19
 -1.1070000E-03   -1.5615751E-19
 -1.1065000E-03   -4.6477563E-20
 -1.1060000E-03    1.0472026E-19
 -1.1055000E-03    2.9703296E-19
 -1.1050000E-03    5.2603238E-19
 -1.1045000E-03    7.8240378E-19
 -1.1040000E-03    1.0512848E-18
 -1.1035000E-03    1.3119317E-18
 -1.1030000E-03    1.5378435E-18
 -1.1025000E-03    1.6974709E-18
 -1.1020000E-03    1.7556150E-18
 -1.1015000E-03    1.6755890E-18
 -1.1010000E-03    1.4221617E-18
 -1.1005000E-03    9.6522972E-19
 -1.1000000E-03    2.8408694E-19
 -1.0995000E-03   -6.2793829E-19
 -1.0990000E-03   -1.7588058E-18
 -1.0985000E-03   -3.0734665E-18
 -1.0980000E-03   -4.5104509E-18
 -1.0975000E-03   -5.9798946E-18
 -1.0970000E-03   -7.3635833E-18
 -1.0965000E-03   -8.5175532E-18
 -1.0960000E-03   -9.2776991E-18
 -1.0955000E-03   -9.4687050E-18
 -1.0950000E-03   -8.9163428E-18
 -1.0945000E-03   -7.4629616E-18
 -1.0939999E-03   -4.9855950E-18
 -1.0934999E-03   -1.4157741E-18
 -1.0930001E-03    3.2402671E-18
 -1.0925001E-03    8.8826600E-18
 -1.0920000E-03    1.5302218E-17
 -1.0915000E-03    2.2170174E-17
 -1.0910000E-03    2.9035575E-17
 -1.0905000E-03    3.5332411E-17
 -1.0900000E-03    4.0398307E-17
 -1.0895000E-03    4.3505882E-17
 -1.0890000E-03    4.3907253E-17
 -1.0885000E-03    4.0891015E-17
 -1.0880000E-03    3.3849842E-17
 -1.0875000E-03    2.2355580E-17
 -1.0870000E-03    6.2373335E-18
 -1.0865000E-03   -1.4343292E-17
 -1.0860000E-03   -3.8826581E-17
 -1.0855000E-03   -6.6206345E-17
 -1.0850000E-03   -9.5006709E-17
 -1.0845000E-03   -1.2329153E-16
 -1.0840000E-03   -1.4871302E-16
 -1.0835000E-03   -1.6860453E-16
 -1.0830000E-03   -1.8011947E-16
 -1.0825000E-03   -1.8041593E-16
 -1.0820000E-03   -1.6688182E-16
 -1.0815000E-03   -1.3739201E-16
 -1.0810000E-03   -9.0583675E-17
 -1.0805000E-03   -2.6132563E-17
 -1.0800000E-03    5.4991510E-17
 -1.0795000E-03    1.5031422E-16
 -1.0790000E-03    2.5571729E-16
 -1.0784999E-03    3.6539625E-16
 -1.0779999E-03    4.7193891E-16
 -1.0775001E-03    5.6654471E-16
 -1.0770001E-03    6.3939743E-16
 -1.0765000E-03    6.8019647E-16
 -1.0760000E-03    6.7883767E-16
 -1.0755000E-03    6.2622602E-16
 -1.0750000E-03    5.1518413E-16
 -1.0745000E-03    3.4140973E-16
 -1.0740000E-03    1.0441884E-16
 -1.0735000E-03   -1.9159981E-16
 -1.0730000E-03   -5.3710174E-16
 -1.0725000E-03   -9.1676398E-16
 -1.0720000E-03   -1.3094099E-15
 -1.0715000E-03   -1.6883607E-15
 -1.0710000E-03   -2.0222789E-15
 -1.0705000E-03   -2.2765461E-15
 -1.0700000E-03   -2.4151817E-15
 -1.0695000E-03   -2.4032768E-15
 -1.0690000E-03   -2.2098683E-15
 -1.0685000E-03   -1.8111256E-15
 -1.0680000E-03   -1.1936778E-15
 -1.0675000E-03   -3.5785533E-16
 -1.0670000E-03    6.7942196E-16
 -1.0665000E-03    1.8824094E-15
 -1.0660000E-03    3.1952681E-15
 -1.0655000E-03    4.5420731E-15
 -1.0650000E-03    5.8283689E-15
 -1.0645000E-03    6.9444979E-15
 -1.0640000E-03    7.7708192E-15
 -1.0634999E-03    8.1848158E-15
 -1.0629999E-03    8.0699522E-15
 -1.0625001E-03    7.3259515E-15
 -1.0620001E-03    5.8799820E-15
 -1.0615001E-03    3.6980705E-15
 -1.0610000E-03    7.9587380E-16
 -1.0605000E-03   -2.7521951E-15
 -1.0600000E-03   -6.8065704E-15
 -1.0595000E-03   -1.1159963E-14
 -1.0590000E-03   -1.5539651E-14
 -1.0585000E-03   -1.9615464E-14
 -1.0580000E-03   -2.3014021E-14
 -1.0575000E-03   -2.5339414E-14
 -1.0570000E-03   -2.6199942E-14
 -1.0565000E-03   -2.5240018E-14
 -1.0560000E-03   -2.2175697E-14
 -1.0555000E-03   -1.6831622E-14
 -1.0550000E-03   -9.1766846E-15
 -1.0545000E-03    6.4486609E-16
 -1.0540000E-03    1.2290330E-14
 -1.0535000E-03    2.5207031E-14
 -1.0530000E-03    3.8635646E-14
 -1.0525000E-03    5.1631093E-14
 -1.0520000E-03    6.3102674E-14
 -1.0515000E-03    7.1874012E-14
 -1.0510000E-03    7.6761527E-14
 -1.0505000E-03    7.6668618E-14
 -1.0500000E-03    7.0690497E-14
 -1.0495000E-03    5.8223147E-14
 -1.0490000E-03    3.9067799E-14
 -1.0485000E-03    1.3521391E-14
 -1.0479999E-03   -1.7557255E-14
 -1.0474999E-03   -5.2715682E-14
 -1.0470001E-03   -8.9919507E-14
 -1.0465001E-03   -1.2661451E-13
 -1.0460000E-03   -1.5984307E-13
 -1.0455000E-03   -1.8641475E-13
 -1.0450000E-03   -2.0312620E-13
 -1.0445000E-03   -2.0702056E-13
 -1.0440000E-03   -1.9567094E-13
 -1.0435000E-03   -1.6746816E-13
 -1.0430000E-03   -1.2188885E-13
 -1.0425000E-03   -5.9717537E-14
 -1.0420000E-03    1.6803902E-14
 -1.0415000E-03    1.0392465E-13
 -1.0410000E-03    1.9645171E-13
 -1.0405000E-03    2.8794889E-13
 -1.0400000E-03    3.7107245E-13
 -1.0395000E-03    4.3803622E-13
 -1.0390000E-03    4.8118719E-13
 -1.0385000E-03    4.9365866E-13
 -1.0380000E-03    4.7005656E-13
 -1.0375000E-03    4.0712485E-13
 -1.0370000E-03    3.0432810E-13
 -1.0365000E-03    1.6428775E-13
 -1.0360000E-03   -6.9873260E-15
 -1.0355000E-03   -2.0012833E-13
 -1.0350000E-03   -4.0272665E-13
 -1.0345000E-03   -5.9996170E-13
 -1.0340000E-03   -7.7552575E-13
 -1.0335000E-03   -9.1280477E-13
 -1.0329999E-03   -9.9624833E-13
 -1.0324999E-03   -1.0128299E-12
 -1.0319999E-03   -9.5348133E-13
 -1.0315001E-03   -8.1436577E-13
 -1.0310001E-03   -5.9785233E-13
 -1.0305000E-03   -3.1306300E-13
 -1.0300000E-03    2.4117461E-14
 -1.0295000E-03    3.9164036E-13
 -1.0290000E-03    7.6252779E-13
 -1.0285000E-03    1.1067114E-12
 -1.0280000E-03    1.3933831E-12
 -1.0275000E-03    1.5937013E-12
 -1.0270000E-03    1.6836416E-12
 -1.0265000E-03    1.6467375E-12
 -1.0260000E-03    1.4764297E-12
 -1.0255000E-03    1.1777421E-12
 -1.0250000E-03    7.6803207E-13
 -1.0245000E-03    2.7661296E-13
 -1.0240000E-03   -2.5686121E-13
 -1.0235000E-03   -7.8525570E-13
 -1.0230000E-03   -1.2579382E-12
 -1.0225000E-03   -1.6256305E-12
 -1.0220000E-03   -1.8457475E-12
 -1.0215000E-03   -1.8877354E-12
 -1.0210000E-03   -1.7378431E-12
 -1.0205000E-03   -1.4027374E-12
 -1.0200000E-03   -9.1140008E-13
 -1.0195000E-03   -3.1483591E-13
 -1.0190000E-03    3.1672153E-13
 -1.0185000E-03    8.9920172E-13
 -1.0180000E-03    1.3425270E-12
 -1.0174999E-03    1.5604284E-12
 -1.0169999E-03    1.4815100E-12
 -1.0165001E-03    1.0605602E-12
 -1.0160001E-03    2.8891329E-13
 -1.0155000E-03   -7.9744599E-13
 -1.0150000E-03   -2.1133386E-12
 -1.0145000E-03   -3.5245548E-12
 -1.0140000E-03   -4.8535902E-12
 -1.0135000E-03   -5.8913751E-12
 -1.0130000E-03   -6.4148760E-12
 -1.0125000E-03   -6.2097909E-12
 -1.0120000E-03   -5.0968977E-12
 -1.0115000E-03   -2.9599554E-12
 -1.0110000E-03    2.2748443E-13
 -1.0105000E-03    4.3793892E-12
 -1.0100000E-03    9.2818392E-12
 -1.0095000E-03    1.4587928E-11
 -1.0090000E-03    1.9825495E-11
 -1.0085000E-03    2.4419381E-11
 -1.0080000E-03    2.7728769E-11
 -1.0075000E-03    2.9098749E-11
 -1.0070000E-03    2.7923705E-11
 -1.0065000E-03    2.3718413E-11
 -1.0060000E-03    1.6191373E-11
 -1.0055000E-03    5.3135543E-12
 -1.0050000E-03   -8.6250399E-12
 -1.0045000E-03   -2.4978710E-11
 -1.0040000E-03   -4.2736568E-11
 -1.0035000E-03   -6.0546151E-11
 -1.0030000E-03   -7.6773976E-11
 -1.0025000E-03   -8.9603991E-11
 -1.0019999E-03   -9.7171556E-11
 -1.0014999E-03   -9.7726764E-11
 -1.0010001E-03   -8.9817084E-11
 -1.0005001E-03   -7.2475699E-11
 -1.0000000E-03   -4.5399372E-11
 -9.9950004E-04   -9.0973297E-12
 -9.9900004E-04    3.5007199E-11
 -9.9850004E-04    8.4540326E-11
 -9.9800003E-04    1.3622010E-10
 -9.9750003E-04    1.8598774E-10
 -9.9700002E-04    2.2923065E-10
 -9.9650002E-04    2.6109245E-10
 -9.9600002E-04    2.7685648E-10
 -9.9550001E-04    2.7238067E-10
 -9.9500001E-04    2.4455352E-10
 -9.9450001E-04    1.9173417E-10
 -9.9400000E-04    1.1413537E-10
 -9.9350000E-04    1.4106222E-11
 -9.9299999E-04   -1.0372517E-10
 -9.9249999E-04   -2.3248388E-10
 -9.9199999E-04   -3.6327888E-10
 -9.9149998E-04   -4.8564291E-10
 -9.9099998E-04   -5.8817468E-10
 -9.9049998E-04   -6.5935857E-10
 -9.8999997E-04   -6.8851719E-10
 -9.8949997E-04   -6.6683492E-10
 -9.8899996E-04   -5.8837457E-10
 -9.8849996E-04   -4.5099935E-10
 -9.8799996E-04   -2.5710753E-10
 -9.8749995E-04   -1.4091072E-11
 -9.8699995E-04    2.6556060E-10
 -9.8649994E-04    5.6457000E-10
 -9.8600006E-04    8.6162499E-10
 -9.8550005E-04    1.1325745E-09
 -9.8500005E-04    1.3520255E-09
 -9.8450005E-04    1.4952617E-09
 -9.8400004E-04    1.5403654E-09
 -9.8350004E-04    1.4703919E-09
 -9.8300003E-04    1.2754219E-09
 -9.8250003E-04    9.5430208E-10
 -9.8200003E-04    5.1589127E-10
 -9.8150002E-04   -2.0358602E-11
 -9.8100002E-04   -6.2461808E-10
 -9.8050002E-04   -1.2577758E-09
 -9.8000001E-04   -1.8734347E-09
 -9.7950001E-04   -2.4207540E-09
 -9.7900000E-04   -2.8480087E-09
 -9.7850000E-04   -3.1066572E-09
 -9.7800000E-04   -3.1556473E-09
 -9.7749999E-04   -2.9656311E-09
 -9.7699999E-04   -2.5227316E-09
 -9.7649998E-04   -1.8315002E-09
 -9.7599998E-04   -9.1672625E-10
 -9.7549998E-04    1.7618229E-10
 -9.7499997E-04    1.3824450E-09
 -9.7450003E-04    2.6208644E-09
 -9.7400002E-04    3.7984420E-09
 -9.7350002E-04    4.8164686E-09
 -9.7300002E-04    5.5777503E-09
 -9.7250001E-04    5.9945173E-09
 -9.7200001E-04    5.9964367E-09
 -9.7150001E-04    5.5380966E-09
 -9.7100000E-04    4.6052970E-09
 -9.7050000E-04    3.2195084E-09
 -9.6999999E-04    1.4399482E-09
 -9.6949999E-04   -6.3714706E-10
 -9.6899999E-04   -2.8822784E-09
 -9.6849998E-04   -5.1394817E-09
 -9.6799998E-04   -7.2359265E-09
 -9.6749997E-04   -8.9938235E-09
 -9.6700003E-04   -1.0243910E-08
 -9.6650003E-04   -1.0839596E-08
 -9.6600002E-04   -1.0670686E-08
 -9.6550002E-04   -9.6755510E-09
 -9.6500001E-04   -7.8506135E-09
 -9.6450001E-04   -5.2561404E-09
 -9.6400001E-04   -2.0175406E-09
 -9.6350000E-04    1.6783659E-09
 -9.6300000E-04    5.5922569E-09
 -9.6249999E-04    9.4461647E-09
 -9.6199999E-04    1.2941612E-08
 -9.6149999E-04    1.5780969E-08
 -9.6099998E-04    1.7690617E-08
 -9.6049998E-04    1.8444236E-08
 -9.5999998E-04    1.7884382E-08
 -9.5949997E-04    1.5940495E-08
 -9.5900003E-04    1.2641631E-08
 -9.5850002E-04    8.1224627E-09
 -9.5800002E-04    2.6215377E-09
 -9.5750001E-04   -3.5286936E-09
 -9.5700001E-04   -9.9199378E-09
 -9.5650001E-04   -1.6093418E-08
 -9.5600000E-04   -2.1571104E-08
 -9.5550000E-04   -2.5890790E-08
 -9.5500000E-04   -2.8642573E-08
 -9.5449999E-04   -2.9503957E-08
 -9.5399999E-04   -2.8270755E-08
 -9.5349998E-04   -2.4881045E-08
 -9.5299998E-04   -1.9429864E-08
 -9.5249998E-04   -1.2172826E-08
 -9.5199997E-04   -3.5176591E-09
 -9.5150003E-04    5.9964895E-09
 -9.5100002E-04    1.5731137E-08
 -9.5050002E-04    2.4990189E-08
 -9.5000002E-04    3.3068627E-08
 -9.4950001E-04    3.9304830E-08
 -9.4900001E-04    4.3132673E-08
 -9.4850000E-04    4.4129376E-08
 -9.4800000E-04    4.2055117E-08
 -9.4750000E-04    3.6880969E-08
 -9.4699999E-04    2.8802322E-08
 -9.4649999E-04    1.8236053E-08
 -9.4599999E-04    5.8008336E-09
 -9.4549998E-04   -7.7186844E-09
 -9.4499998E-04   -2.1421847E-08
 -9.4449997E-04   -3.4352865E-08
 -9.4400003E-04   -4.5568409E-08
 -9.4350002E-04   -5.4206964E-08
 -9.4300002E-04   -5.9554758E-08
 -9.4250002E-04   -6.1103023E-08
 -9.4200001E-04   -5.8591983E-08
 -9.4150001E-04   -5.2037667E-08
 -9.4100001E-04   -4.1739149E-08
 -9.4050000E-04   -2.8264942E-08
 -9.4000000E-04   -1.2419262E-08
 -9.3949999E-04    4.8098494E-09
 -9.3899999E-04    2.2316827E-08
 -9.3849999E-04    3.8954525E-08
 -9.3799998E-04    5.3614105E-08
 -9.3749998E-04    6.5302785E-08
 -9.3699998E-04    7.3213528E-08
 -9.3649997E-04    7.6781212E-08
 -9.3600003E-04    7.5721154E-08
 -9.3550002E-04    7.0047001E-08
 -9.3500002E-04    6.0066846E-08
 -9.3450001E-04    4.6358252E-08
 -9.3400001E-04    2.9724561E-08
 -9.3350001E-04    1.1136330E-08
 -9.3300000E-04   -8.3369560E-09
 -9.3250000E-04   -2.7599114E-08
 -9.3200000E-04   -4.5597496E-08
 -9.3149999E-04   -6.1385627E-08
 -9.3099999E-04   -7.4173620E-08
 -9.3049998E-04   -8.3363020E-08
 -9.2999998E-04   -8.8564484E-08
 -9.2949998E-04   -8.9598416E-08
 -9.2899997E-04   -8.6480497E-08
 -9.2850003E-04   -7.9395470E-08
 -9.2800002E-04   -6.8663773E-08
 -9.2750002E-04   -5.4706081E-08
 -9.2700002E-04   -3.8010832E-08
 -9.2650001E-04   -1.9109022E-08
 -9.2600001E-04    1.4404861E-09
 -9.2550000E-04    2.3053916E-08
 -9.2500000E-04    4.5114298E-08
 -9.2450000E-04    6.6954712E-08
 -9.2399999E-04    8.7837527E-08
 -9.2349999E-04    1.0693563E-07
 -9.2299999E-04    1.2332224E-07
 -9.2249998E-04    1.3597602E-07
 -9.2199998E-04    1.4380700E-07
 -9.2149997E-04    1.4570706E-07
 -9.2100003E-04    1.4062606E-07
 -9.2050002E-04    1.2767119E-07
 -9.2000002E-04    1.0622399E-07
 -9.1950002E-04    7.6065753E-08
 -9.1900001E-04    3.7498829E-08
 -9.1850001E-04   -8.5499847E-09
 -9.1800001E-04   -6.0459456E-08
 -9.1750000E-04   -1.1589169E-07
 -9.1700000E-04   -1.7182983E-07
 -9.1649999E-04   -2.2468386E-07
 -9.1599999E-04   -2.7046764E-07
 -9.1549999E-04   -3.0504333E-07
 -9.1499998E-04   -3.2442259E-07
 -9.1449998E-04   -3.2510673E-07
 -9.1399997E-04   -3.0444178E-07
 -9.1349997E-04   -2.6095927E-07
 -9.1300003E-04   -1.9467021E-07
 -9.1250002E-04   -1.0728074E-07
 -9.1200002E-04   -2.2984150E-09
 -9.1150001E-04    1.1499409E-07
 -9.1100001E-04    2.3771425E-07
 -9.1050001E-04    3.5770827E-07
 -9.1000000E-04    4.6602534E-07
 -9.0950000E-04    5.5351558E-07
 -9.0899999E-04    6.1151729E-07
 -9.0849999E-04    6.3258733E-07
 -9.0799999E-04    6.1121841E-07
 -9.0749998E-04    5.4448418E-07
 -9.0699998E-04    4.3254994E-07
 -9.0649998E-04    2.7899310E-07
 -9.0599997E-04    9.0887617E-08
 -9.0550003E-04   -1.2138031E-07
 -9.0500002E-04   -3.4457662E-07
 -9.0450002E-04   -5.6335512E-07
 -9.0400001E-04   -7.6123189E-07
 -9.0350001E-04   -9.2174270E-07
 -9.0300001E-04   -1.0297084E-06
 -9.0250000E-04   -1.0725172E-06
 -9.0200000E-04   -1.0413225E-06
 -9.0150000E-04   -9.3205381E-07
 -9.0099999E-04   -7.4614456E-07
 -9.0049999E-04   -4.9089357E-07
 -8.9999998E-04   -1.7940206E-07
 -8.9949998E-04    1.6994490E-07
 -8.9899998E-04    5.3444802E-07
 -8.9849997E-04    8.8847463E-07
 -8.9800003E-04    1.2051735E-06
 -8.9750002E-04    1.4584164E-06
 -8.9700002E-04    1.6248292E-06
 -8.9650002E-04    1.6857630E-06
 -8.9600001E-04    1.6290443E-06
 -8.9550001E-04    1.4503551E-06
 -8.9500000E-04    1.1541077E-06
 -8.9450000E-04    7.5371270E-07
 -8.9400000E-04    2.7117855E-07
 -8.9349999E-04   -2.6396856E-07
 -8.9299999E-04   -8.1640667E-07
 -8.9249999E-04   -1.3472873E-06
 -8.9199998E-04   -1.8169109E-06
 -8.9149998E-04   -2.1876272E-06
 -8.9099997E-04   -2.4267497E-06
 -8.9050003E-04   -2.5092627E-06
 -8.9000002E-04   -2.4201006E-06
 -8.8950002E-04   -2.1558017E-06
 -8.8900002E-04   -1.7253795E-06
 -8.8850001E-04   -1.1503022E-06
 -8.8800001E-04   -4.6353853E-07
 -8.8750001E-04    2.9229935E-07
 -8.8700000E-04    1.0676209E-06
 -8.8650000E-04    1.8091597E-06
 -8.8599999E-04    2.4636925E-06
 -8.8549999E-04    2.9819087E-06
 -8.8499999E-04    3.3221422E-06
 -8.8449998E-04    3.4536795E-06
 -8.8399998E-04    3.3593731E-06
 -8.8349998E-04    3.0373458E-06
 -8.8299997E-04    2.5016161E-06
 -8.8250003E-04    1.7815745E-06
 -8.8200002E-04    9.2030638E-07
 -8.8150002E-04   -2.8137253E-08
 -8.8100001E-04   -1.0023442E-06
 -8.8050001E-04   -1.9377687E-06
 -8.8000001E-04   -2.7712763E-06
 -8.7950000E-04   -3.4456643E-06
 -8.7900000E-04   -3.9138195E-06
 -8.7850000E-04   -4.1421868E-06
 -8.7799999E-04   -4.1132753E-06
 -8.7749999E-04   -3.8270045E-06
 -8.7699998E-04   -3.3007698E-06
 -8.7649998E-04   -2.5682189E-06
 -8.7599998E-04   -1.6768226E-06
 -8.7549997E-04   -6.8443023E-07
 -8.7500003E-04    3.4493061E-07
 -8.7450002E-04    1.3456749E-06
 -8.7400002E-04    2.2553425E-06
 -8.7350002E-04    3.0189710E-06
 -8.7300001E-04    3.5928206E-06
 -8.7250001E-04    3.9471565E-06
 -8.7200000E-04    4.0678897E-06
 -8.7150000E-04    3.9569577E-06
 -8.7100000E-04    3.6314493E-06
 -8.7049999E-04    3.1215720E-06
 -8.6999999E-04    2.4676706E-06
 -8.6949999E-04    1.7165759E-06
 -8.6899998E-04    9.1763133E-07
 -8.6849998E-04    1.1875093E-07
 -8.6799997E-04   -6.3712923E-07
 -8.6750003E-04   -1.3148976E-06
 -8.6700002E-04   -1.8891716E-06
 -8.6650002E-04   -2.3451119E-06
 -8.6600002E-04   -2.6781174E-06
 -8.6550001E-04   -2.8924742E-06
 -8.6500001E-04   -2.9991481E-06
 -8.6450001E-04   -3.0130009E-06
 -8.6400000E-04   -2.9497673E-06
 -8.6350000E-04   -2.8231666E-06
 -8.6299999E-04   -2.6425107E-06
 -8.6249999E-04   -2.4111293E-06
 -8.6199999E-04   -2.1258395E-06
 -8.6149998E-04   -1.7775902E-06
 -8.6099998E-04   -1.3532700E-06
 -8.6049997E-04   -8.3853570E-07
 -8.5999997E-04   -2.2138805E-07
 -8.5950003E-04    5.0389116E-07
 -8.5900002E-04    1.3329015E-06
 -8.5850002E-04    2.2478837E-06
 -8.5800001E-04    3.2155569E-06
 -8.5750001E-04    4.1864528E-06
 -8.5700001E-04    5.0960452E-06
 -8.5650000E-04    5.8678197E-06
 -8.5600000E-04    6.4182495E-06
 -8.5549999E-04    6.6634298E-06
 -8.5499999E-04    6.5269392E-06
 -8.5449999E-04    5.9483223E-06
 -8.5399998E-04    4.8914526E-06
 -8.5349998E-04    3.3519621E-06
 -8.5299998E-04    1.3629185E-06
 -8.5249997E-04   -1.0019958E-06
 -8.5200003E-04   -3.6284143E-06
 -8.5150002E-04   -6.3647140E-06
 -8.5100002E-04   -9.0290650E-06
 -8.5050002E-04   -1.1419923E-05
 -8.5000001E-04   -1.3329463E-05
 -8.4950001E-04   -1.4559158E-05
 -8.4900000E-04   -1.4936426E-05
 -8.4850000E-04   -1.4331114E-05
 -8.4800000E-04   -1.2670418E-05
 -8.4749999E-04   -9.9508934E-06
 -8.4699999E-04   -6.2463150E-06
 -8.4649998E-04   -1.7103191E-06
 -8.4599998E-04    3.4268351E-06
 -8.4549998E-04    8.8677025E-06
 -8.4499997E-04    1.4263100E-05
 -8.4450003E-04    1.9232903E-05
 -8.4400002E-04    2.3391052E-05
 -8.4350002E-04    2.6373214E-05
 -8.4300002E-04    2.7865208E-05
 -8.4250001E-04    2.7630103E-05
 -8.4200001E-04    2.5531863E-05
 -8.4150000E-04    2.1553460E-05
 -8.4100000E-04    1.5807736E-05
 -8.4050000E-04    8.5396250E-06
 -8.3999999E-04    1.1896846E-07
 -8.3949999E-04   -8.9762088E-06
 -8.3899999E-04   -1.8185423E-05
 -8.3849998E-04   -2.6899166E-05
 -8.3799998E-04   -3.4498149E-05
 -8.3749997E-04   -4.0395877E-05
 -8.3700003E-04   -4.4081688E-05
 -8.3650002E-04   -4.5161232E-05
 -8.3600002E-04   -4.3391279E-05
 -8.3550002E-04   -3.8706032E-05
 -8.3500001E-04   -3.1232616E-05
 -8.3450001E-04   -2.1293992E-05
 -8.3400001E-04   -9.3983590E-06
 -8.3350000E-04    3.7849106E-06
 -8.3300000E-04    1.7461856E-05
 -8.3249999E-04    3.0761130E-05
 -8.3199999E-04    4.2789063E-05
 -8.3149999E-04    5.2689156E-05
 -8.3099998E-04    5.9702052E-05
 -8.3049998E-04    6.3221865E-05
 -8.2999998E-04    6.2844789E-05
 -8.2949997E-04    5.8406273E-05
 -8.2900003E-04    5.0003644E-05
 -8.2850002E-04    3.8001959E-05
 -8.2800002E-04    2.3022007E-05
 -8.2750001E-04    5.9103982E-06
 -8.2700001E-04   -1.2306889E-05
 -8.2650001E-04   -3.0485124E-05
 -8.2600000E-04   -4.7431968E-05
 -8.2550000E-04   -6.1984872E-05
 -8.2500000E-04   -7.3089614E-05
 -8.2449999E-04   -7.9874844E-05
 -8.2399999E-04   -8.1717364E-05
 -8.2349998E-04   -7.8293444E-05
 -8.2299998E-04   -6.9612266E-05
 -8.2249998E-04   -5.6028504E-05
 -8.2199997E-04   -3.8232505E-05
 -8.2150003E-04   -1.7217964E-05
 -8.2100002E-04    5.7716616E-06
 -8.2050002E-04    2.9315053E-05
 -8.2000002E-04    5.1899220E-05
 -8.1950001E-04    7.2014722E-05
 -8.1900001E-04    8.8254004E-05
 -8.1850000E-04    9.9406469E-05
 -8.1800000E-04    1.0454397E-04
 -8.1750000E-04    1.0309094E-04
 -8.1699999E-04    9.4873962E-05
 -8.1649999E-04    8.0147111E-05
 -8.1599999E-04    5.9590617E-05
 -8.1549998E-04    3.4282122E-05
 -8.1499998E-04    5.6417180E-06
 -8.1449997E-04   -2.4646641E-05
 -8.1400003E-04   -5.4732816E-05
 -8.1350002E-04   -8.2711704E-05
 -8.1300002E-04   -1.0674120E-04
 -8.1250002E-04   -1.2515971E-04
 -8.1200001E-04   -1.3659576E-04
 -8.1150001E-04   -1.4006245E-04
 -8.1100001E-04   -1.3503089E-04
 -8.1050000E-04   -1.2147698E-04
 -8.1000000E-04   -9.9898381E-05
 -8.0949999E-04   -7.1299772E-05
 -8.0899999E-04   -3.7146558E-05
 -8.0849999E-04    7.1076693E-07
 -8.0799998E-04    4.0137606E-05
 -8.0749998E-04    7.8836063E-05
 -8.0699997E-04    1.1447851E-04
 -8.0649997E-04    1.4484614E-04
 -8.0600003E-04    1.6796423E-04
 -8.0550002E-04    1.8222588E-04
 -8.0500002E-04    1.8649673E-04
 -8.0450001E-04    1.8019385E-04
 -8.0400001E-04    1.6333378E-04
 -8.0350001E-04    1.3654653E-04
 -8.0300000E-04    1.0105370E-04
 -8.0250000E-04    5.8611902E-05
 -8.0200000E-04    1.1423982E-05
 -8.0149999E-04   -3.7977294E-05
 -8.0099999E-04   -8.6866632E-05
 -8.0049998E-04   -1.3247717E-04
 -7.9999998E-04   -1.7215659E-04
 -7.9949998E-04   -2.0351946E-04
 -7.9899997E-04   -2.2458722E-04
 -7.9850003E-04   -2.3390773E-04
 -7.9800002E-04   -2.3064746E-04
 -7.9750002E-04   -2.1465080E-04
 -7.9700002E-04   -1.8646292E-04
 -7.9650001E-04   -1.4731436E-04
 -7.9600001E-04   -9.9067787E-05
 -7.9550000E-04   -4.4129487E-05
 -7.9500000E-04    1.4670307E-05
 -7.9450000E-04    7.4221985E-05
 -7.9399999E-04    1.3129870E-04
 -7.9349999E-04    1.8272783E-04
 -7.9299998E-04    2.2556260E-04
 -7.9249998E-04    2.5724524E-04
 -7.9199998E-04    2.7575274E-04
 -7.9149997E-04    2.7971773E-04
 -7.9100003E-04    2.6851750E-04
 -7.9050002E-04    2.4232660E-04
 -7.9000002E-04    2.0212879E-04
 -7.8950002E-04    1.4968806E-04
 -7.8900001E-04    8.7478162E-05
 -7.8850001E-04    1.8573926E-05
 -7.8800000E-04   -5.3491538E-05
 -7.8750000E-04   -1.2489753E-04
 -7.8700000E-04   -1.9172663E-04
 -7.8649999E-04   -2.5016716E-04
 -7.8599999E-04   -2.9671736E-04
 -7.8549999E-04   -3.2838146E-04
 -7.8499998E-04   -3.4284749E-04
 -7.8449998E-04   -3.3863742E-04
 -7.8399997E-04   -3.1522071E-04
 -7.8350003E-04   -2.7308421E-04
 -7.8300002E-04   -2.1375250E-04
 -7.8250002E-04   -1.3975526E-04
 -7.8200002E-04   -5.4540567E-05
 -7.8150001E-04    3.7664449E-05
 -7.8100001E-04    1.3204169E-04
 -7.8050001E-04    2.2341177E-04
 -7.8000000E-04    3.0649581E-04
 -7.7950000E-04    3.7619803E-04
 -7.7899999E-04    4.2789488E-04
 -7.7849999E-04    4.5771615E-04
 -7.7799999E-04    4.6280204E-04
 -7.7749998E-04    4.4152097E-04
 -7.7699998E-04    3.9363292E-04
 -7.7649998E-04    3.2038626E-04
 -7.7599997E-04    2.2453695E-04
 -7.7550003E-04    1.1028509E-04
 -7.7500002E-04   -1.6875190E-05
 -7.7450002E-04   -1.5038863E-04
 -7.7400001E-04   -2.8294799E-04
 -7.7350001E-04   -4.0686663E-04
 -7.7300001E-04   -5.1449763E-04
 -7.7250000E-04   -5.9867784E-04
 -7.7200000E-04   -6.5317366E-04
 -7.7150000E-04   -6.7310076E-04
 -7.7099999E-04   -6.5529271E-04
 -7.7049999E-04   -5.9859146E-04
 -7.6999998E-04   -5.0403894E-04
 -7.6949998E-04   -3.7494910E-04
 -7.6899998E-04   -2.1685028E-04
 -7.6849997E-04   -3.7291160E-05
 -7.6800003E-04    1.5448616E-04
 -7.6750002E-04    3.4799494E-04
 -7.6700002E-04    5.3205469E-04
 -7.6650002E-04    6.9541781E-04
 -7.6600001E-04    8.2743639E-04
 -7.6550001E-04    9.1873365E-04
 -7.6500000E-04    9.6183532E-04
 -7.6450000E-04    9.5172308E-04
 -7.6400000E-04    8.8626868E-04
 -7.6349999E-04    7.6651602E-04
 -7.6299999E-04    5.9678528E-04
 -7.6249999E-04    3.8458165E-04
 -7.6199998E-04    1.4030450E-04
 -7.6149998E-04   -1.2323621E-04
 -7.6099997E-04   -3.9147647E-04
 -7.6050003E-04   -6.4889505E-04
 -7.6000002E-04   -8.7990897E-04
 -7.5950002E-04   -1.0698158E-03
 -7.5900002E-04   -1.2057265E-03
 -7.5850001E-04   -1.2774292E-03
 -7.5800001E-04   -1.2781274E-03
 -7.5750001E-04   -1.2050003E-03
 -7.5700000E-04   -1.0595403E-03
 -7.5650000E-04   -8.4763940E-04
 -7.5599999E-04   -5.7940523E-04
 -7.5549999E-04   -2.6870900E-04
 -7.5499999E-04    6.7518784E-05
 -7.5449998E-04    4.1020999E-04
 -7.5399998E-04    7.3924888E-04
 -7.5349997E-04    1.0346681E-03
 -7.5299997E-04    1.2778791E-03
 -7.5250003E-04    1.4528615E-03
 -7.5200002E-04    1.5472325E-03
 -7.5150002E-04    1.5531279E-03
 -7.5100001E-04    1.4678292E-03
 -7.5050001E-04    1.2940904E-03
 -7.5000001E-04    1.0401334E-03
 -7.4950000E-04    7.1930134E-04
 -7.4900000E-04    3.4938092E-04
 -7.4850000E-04   -4.8373851E-05
 -7.4799999E-04   -4.5046295E-04
 -7.4749999E-04   -8.3253789E-04
 -7.4699998E-04   -1.1708912E-03
 -7.4649998E-04   -1.4439472E-03
 -7.4599998E-04   -1.6336583E-03