 -1.2000001E-03    1.0000000E-24
 -1.1995001E-03    1.0000000E-24
 -1.1990000E-03    1.0000000E-24
 -1.1985000E-03    1.0000000E-24
 -1.1980000E-03    1.0000000E-24
 -1.1975000E-03    1.0000000E-24
 -1.1970000E-03    1.0000000E-24
 -1.1965000E-03    1.0000000E-24
 -1.1960000E-03    1.0000000E-24
 -1.1955000E-03   -4.6740719E-24
 -1.1950000E-03   -9.4743198E-23
 -1.1945000E-03   -8.3339376E-22
 -1.1940000E-03   -4.9764523E-21
 -1.1935000E-03   -2.2693677E-20
 -1.1930000E-03   -8.3505143E-20
 -1.1925000E-03   -2.5427615E-19
 -1.1920000E-03   -6.4081729E-19
 -1.1915000E-03   -1.2815142E-18
 -1.1910000E-03   -1.6701096E-18
 -1.1905000E-03    7.1601121E-19
 -1.1900000E-03    1.4172903E-17
 -1.1895000E-03    6.1200499E-17
 -1.1890000E-03    1.9559514E-16
 -1.1885000E-03    5.3421976E-16
 -1.1880000E-03    1.3115467E-15
 -1.1875000E-03    2.9663481E-15
 -1.1870000E-03    6.2688985E-15
 -1.1865000E-03    1.2491500E-14
 -1.1860000E-03    2.3612160E-14
 -1.1854999E-03    4.2517642E-14
 -1.1849999E-03    7.3135210E-14
 -1.1845001E-03    1.2037120E-13
 -1.1840001E-03    1.8967159E-13
 -1.1835000E-03    2.8595331E-13
 -1.1830000E-03    4.1159960E-13
 -1.1825000E-03    5.6319397E-13
 -1.1820000E-03    7.2671610E-13
 -1.1815000E-03    8.7108061E-13
 -1.1810000E-03    9.4020538E-13
 -1.1805000E-03    8.4428336E-13
 -1.1800000E-03    4.5161458E-13
 -1.1795000E-03   -4.1678664E-13
 -1.1790000E-03   -1.9866355E-12
 -1.1785000E-03   -4.5197717E-12
 -1.1780000E-03   -8.2887221E-12
 -1.1775000E-03   -1.3531494E-11
 -1.1770000E-03   -2.0382354E-11
 -1.1765000E-03   -2.8776273E-11
 -1.1760000E-03   -3.8328136E-11
 -1.1755000E-03   -4.8193002E-11
 -1.1750000E-03   -5.6920420E-11
 -1.1745000E-03   -6.2324243E-11
 -1.1740000E-03   -6.1397928E-11
 -1.1735000E-03   -5.0313836E-11
 -1.1730000E-03   -2.4551045E-11
 -1.1725000E-03    2.0801921E-11
 -1.1720000E-03    9.0527578E-11
 -1.1715000E-03    1.8851444E-10
 -1.1710000E-03    3.1674122E-10
 -1.1704999E-03    4.7404025E-10
 -1.1699999E-03    6.5471450E-10
 -1.1695001E-03    8.4713808E-10
 -1.1690001E-03    1.0325265E-09
 -1.1685000E-03    1.1841186E-09
 -1.1680000E-03    1.2670538E-09
 -1.1675000E-03    1.2392525E-09
 -1.1670000E-03    1.0535853E-09
 -1.1665000E-03    6.6157080E-10
 -1.1660000E-03    1.8717831E-11
 -1.1655000E-03   -9.0853042E-10
 -1.1650000E-03   -2.1345183E-09
 -1.1645000E-03   -3.6452996E-09
 -1.1640000E-03   -5.3895750E-09
 -1.1635000E-03   -7.2707542E-09
 -1.1630000E-03   -9.1414671E-09
 -1.1625000E-03   -1.0802018E-08
 -1.1620000E-03   -1.2004270E-08
 -1.1615000E-03   -1.2462276E-08
 -1.1610000E-03   -1.1870615E-08
 -1.1605000E-03   -9.9307362E-09
 -1.1600000E-03   -6.3848185E-09
 -1.1595000E-03   -1.0556300E-09
 -1.1590000E-03    6.1102843E-09
 -1.1585000E-03    1.4999866E-08
 -1.1580000E-03    2.5296073E-08
 -1.1575000E-03    3.6451215E-08
 -1.1570000E-03    4.7676963E-08
 -1.1565000E-03    5.7956537E-08
 -1.1560000E-03    6.6083736E-08
 -1.1555000E-03    7.0731474E-08
 -1.1549999E-03    7.0550307E-08
 -1.1544999E-03    6.4293900E-08
 -1.1540001E-03    5.0965127E-08
 -1.1535001E-03    2.9972487E-08
 -1.1530000E-03    1.2831914E-09
 -1.1525000E-03   -3.4443506E-08
 -1.1520000E-03   -7.5760930E-08
 -1.1515000E-03   -1.2039550E-07
 -1.1510000E-03   -1.6527926E-07
 -1.1505000E-03   -2.0666650E-07
 -1.1500000E-03   -2.4033992E-07
 -1.1495000E-03   -2.6190395E-07
 -1.1490000E-03   -2.6715304E-07
 -1.1485000E-03   -2.5249273E-07
 -1.1480000E-03   -2.1538138E-07
 -1.1475000E-03   -1.5475221E-07
 -1.1470000E-03   -7.1370572E-08
 -1.1465000E-03    3.1921434E-08
 -1.1460000E-03    1.5011604E-07
 -1.1455000E-03    2.7614223E-07
 -1.1450000E-03    4.0118056E-07
 -1.1445000E-03    5.1519328E-07
 -1.1440000E-03    6.0764961E-07
 -1.1435000E-03    6.6840454E-07
 -1.1430000E-03    6.8866308E-07
 -1.1425000E-03    6.6194639E-07
 -1.1420000E-03    5.8496033E-07
 -1.1415000E-03    4.5826326E-07
 -1.1410000E-03    2.8663737E-07
 -1.1405000E-03    7.9084458E-08
 -1.1399999E-03   -1.5160215E-07
 -1.1394999E-03   -3.8969776E-07
 -1.1390001E-03   -6.1779997E-07
 -1.1385001E-03   -8.1838766E-07
 -1.1380001E-03   -9.7554789E-07
 -1.1375000E-03   -1.0766967E-06
 -1.1370000E-03   -1.1140928E-06
 -1.1365000E-03   -1.0859418E-06
 -1.1360000E-03   -9.9690180E-07
 -1.1355000E-03   -8.5785371E-07
 -1.1350000E-03   -6.8486031E-07
 -1.1345000E-03   -4.9733296E-07
 -1.1340000E-03   -3.1552375E-07
 -1.1335000E-03   -1.5756635E-07
 -1.1330000E-03   -3.6385586E-08
 -1.1325000E-03    4.3132655E-08
 -1.1320000E-03    8.6281069E-08
 -1.1315000E-03    1.0955895E-07
 -1.1310000E-03    1.4022970E-07
 -1.1305000E-03    2.1416831E-07
 -1.1300000E-03    3.7192936E-07
 -1.1295000E-03    6.5317926E-07
 -1.1290000E-03    1.0898711E-06
 -1.1285000E-03    1.6987796E-06
 -1.1280000E-03    2.4742171E-06
 -1.1275000E-03    3.3819083E-06
 -1.1270000E-03    4.3550576E-06
 -1.1265000E-03    5.2936066E-06
 -1.1260000E-03    6.0674961E-06
 -1.1255000E-03    6.5244540E-06
 -1.1250000E-03    6.5024092E-06
 -1.1244999E-03    5.8461087E-06
 -1.1239999E-03    4.4269550E-06
 -1.1235001E-03    2.1645087E-06
 -1.1230001E-03   -9.5240142E-07
 -1.1225000E-03   -4.8473917E-06
 -1.1220000E-03   -9.3436647E-06
 -1.1215000E-03   -1.4159114E-05
 -1.1210000E-03   -1.8911560E-05
 -1.1205000E-03   -2.3135599E-05
 -1.1200000E-03   -2.6311665E-05
 -1.1195000E-03   -2.7906623E-05
 -1.1190000E-03   -2.7423999E-05
 -1.1185000E-03   -2.4460502E-05
 -1.1180000E-03   -1.8764298E-05
 -1.1175000E-03   -1.0289483E-05
 -1.1170000E-03    7.5941557E-07
 -1.1165000E-03    1.3899136E-05
 -1.1160000E-03    2.8361275E-05
 -1.1155000E-03    4.3112232E-05
 -1.1150000E-03    5.6902147E-05
 -1.1145000E-03    6.8343019E-05
 -1.1140000E-03    7.6013341E-05
 -1.1135000E-03    7.8583675E-05
 -1.1130000E-03    7.4954492E-05
 -1.1125000E-03    6.4395143E-05
 -1.1120000E-03    4.6671084E-05
 -1.1115000E-03    2.2145343E-05
 -1.1110000E-03   -8.1591415E-06
 -1.1105000E-03   -4.2548207E-05
 -1.1100000E-03   -7.8704848E-05
 -1.1094999E-03   -1.1380171E-04
 -1.1089999E-03   -1.4467663E-04
 -1.1084999E-03   -1.6806410E-04
 -1.1080001E-03   -1.8086960E-04
 -1.1075001E-03   -1.8046718E-04
 -1.1070000E-03   -1.6499705E-04
 -1.1065000E-03   -1.3363556E-04
 -1.1060000E-03   -8.6809552E-05
 -1.1055000E-03   -2.6328458E-05
 -1.1050000E-03    4.4588738E-05
 -1.1045000E-03    1.2140749E-04
 -1.1040000E-03    1.9849974E-04
 -1.1035000E-03    2.6948997E-04
 -1.1030000E-03    3.2771009E-04
 -1.1025000E-03    3.6673556E-04
 -1.1020000E-03    3.8096507E-04
 -1.1015000E-03    3.6619755E-04
 -1.1010000E-03    3.2015549E-04
 -1.1005000E-03    2.4290162E-04
 -1.1000000E-03    1.3710097E-04
 -1.0995000E-03    8.0876498E-06
 -1.0990000E-03   -1.3629079E-04
 -1.0985000E-03   -2.8606170E-04
 -1.0980000E-03   -4.2973916E-04
 -1.0975000E-03   -5.5512943E-04
 -1.0970000E-03   -6.5027957E-04
 -1.0965000E-03   -7.0450117E-04
 -1.0960000E-03   -7.0938841E-04
 -1.0955000E-03   -6.5974047E-04
 -1.0950000E-03   -5.5430038E-04
 -1.0945000E-03   -3.9622837E-04
 -1.0939999E-03   -1.9324431E-04
 -1.0934999E-03    4.2603322E-05
 -1.0930001E-03    2.9555510E-04
 -1.0925001E-03    5.4712640E-04
 -1.0920000E-03    7.7740732E-04
 -1.0915000E-03    9.6659199E-04
 -1.0910000E-03    1.0966249E-03
 -1.0905000E-03    1.1528309E-03
 -1.0900000E-03    1.1253890E-03
 -1.0895000E-03    1.0105090E-03
 -1.0890000E-03    8.1118819E-04
 -1.0885000E-03    5.3744973E-04
 -1.0880000E-03    2.0600476E-04
 -1.0875000E-03   -1.6067535E-04
 -1.0870000E-03   -5.3583877E-04
 -1.0865000E-03   -8.9039595E-04
 -1.0860000E-03   -1.1951893E-03
 -1.0855000E-03   -1.4234157E-03
 -1.0850000E-03   -1.5530029E-03
 -1.0845000E-03   -1.5687289E-03
 -1.0840000E-03   -1.4638875E-03
 -1.0835000E-03   -1.2413227E-03
 -1.0830000E-03   -9.1370632E-04
 -1.0825000E-03   -5.0298788E-04
 -1.0820000E-03   -3.9015707E-05
 -1.0815000E-03    4.4259810E-04
 -1.0810000E-03    9.0322469E-04
 -1.0805000E-03    1.3043705E-03
 -1.0800000E-03    1.6109789E-03
 -1.0795000E-03    1.7945992E-03
 -1.0790000E-03    1.8361338E-03
 -1.0784999E-03    1.7278992E-03
 -1.0779999E-03    1.4747813E-03
 -1.0775001E-03    1.0943362E-03
 -1.0770001E-03    6.1577198E-04
 -1.0765000E-03    7.7850978E-05
 -1.0760000E-03   -4.7415768E-04
 -1.0755000E-03   -9.9224271E-04
 -1.0750000E-03   -1.4298308E-03
 -1.0745000E-03   -1.7460207E-03
 -1.0740000E-03   -1.9094922E-03
 -1.0735000E-03   -1.9017156E-03
 -1.0730000E-03   -1.7191384E-03
 -1.0725000E-03   -1.3740974E-03
 -1.0720000E-03   -8.9431624E-04
 -1.0715000E-03   -3.2096377E-04
 -1.0710000E-03    2.9461255E-04
 -1.0705000E-03    8.9523935E-04
 -1.0700000E-03    1.4230049E-03
 -1.0695000E-03    1.8246436E-03
 -1.0690000E-03    2.0567302E-03
 -1.0685000E-03    2.0901915E-03
 -1.0680000E-03    1.9136819E-03
 -1.0675000E-03    1.5354512E-03
 -1.0670000E-03    9.8345894E-04
 -1.0665000E-03    3.0363983E-04
 -1.0660000E-03   -4.4360984E-04
 -1.0655000E-03   -1.1884777E-03
 -1.0650000E-03   -1.8579172E-03
 -1.0645000E-03   -2.3824384E-03
 -1.0640000E-03   -2.7029000E-03
 -1.0634999E-03   -2.7766649E-03
 -1.0629999E-03   -2.5825026E-03
 -1.0625001E-03   -2.1237200E-03
 -1.0620001E-03   -1.4291316E-03
 -1.0615001E-03   -5.5166922E-04
 -1.0610000E-03    4.3535788E-04
 -1.0605000E-03    1.4441229E-03
 -1.0600000E-03    2.3798179E-03
 -1.0595000E-03    3.1492468E-03
 -1.0590000E-03    3.6697239E-03
 -1.0585000E-03    3.8774575E-03
 -1.0580000E-03    3.7346066E-03
 -1.0575000E-03    3.2342859E-03
 -1.0570000E-03    2.4029401E-03
 -1.0565000E-03    1.2997277E-03
 -1.0560000E-03    1.2822775E-05
 -1.0555000E-03   -1.3471922E-03
 -1.0550000E-03   -2.6563741E-03
 -1.0545000E-03   -3.7881983E-03
 -1.0540000E-03   -4.6251691E-03
 -1.0535000E-03   -5.0702230E-03
 -1.0530000E-03   -5.0568799E-03
 -1.0525000E-03   -4.5571327E-03
 -1.0520000E-03   -3.5862455E-03
 -1.0515000E-03   -2.2038633E-03
 -1.0510000E-03   -5.1114406E-04
 -1.0505000E-03    1.3560276E-03
 -1.0500000E-03    3.2373245E-03
 -1.0495000E-03    4.9610087E-03
 -1.0490000E-03    6.3586710E-03
 -1.0485000E-03    7.2804438E-03
 -1.0479999E-03    7.6093492E-03
 -1.0474999E-03    7.2734719E-03
 -1.0470001E-03    6.2547699E-03
 -1.0465001E-03    4.5935963E-03
 -1.0460000E-03    2.3883414E-03
 -1.0455000E-03   -2.0998763E-04
 -1.0450000E-03   -3.0079950E-03
 -1.0445000E-03   -5.7842438E-03
 -1.0440000E-03   -8.3066514E-03
 -1.0435000E-03   -1.0351545E-02
 -1.0430000E-03   -1.1722813E-02
 -1.0425000E-03   -1.2269514E-02
 -1.0420000E-03   -1.1900369E-02
 -1.0415000E-03   -1.0593822E-02
 -1.0410000E-03   -8.4026465E-03
 -1.0405000E-03   -5.4525346E-03
 -1.0400000E-03   -1.9346211E-03
 -1.0395000E-03    1.9076427E-03
 -1.0390000E-03    5.7962942E-03
 -1.0385000E-03    9.4400086E-03
 -1.0380000E-03    1.2556907E-02
 -1.0375000E-03    1.4897177E-02
 -1.0370000E-03    1.6263653E-02
 -1.0365000E-03    1.6528588E-02
 -1.0360000E-03    1.5645215E-02
 -1.0355000E-03    1.3653030E-02
 -1.0350000E-03    1.0676282E-02
 -1.0345000E-03    6.9157165E-03
 -1.0340000E-03    2.6341246E-03
 -1.0335000E-03   -1.8631587E-03
 -1.0329999E-03   -6.2513100E-03
 -1.0324999E-03   -1.0210785E-02
 -1.0319999E-03   -1.3451827E-02
 -1.0315001E-03   -1.5736766E-02
 -1.0310001E-03   -1.6898327E-02
 -1.0305000E-03   -1.6852491E-02
 -1.0300000E-03   -1.5604934E-02
 -1.0295000E-03   -1.3250516E-02
 -1.0290000E-03   -9.9659525E-03
 -1.0285000E-03   -5.9962627E-03
 -1.0280000E-03   -1.6361187E-03
 -1.0275000E-03    2.7923910E-03
 -1.0270000E-03    6.9638342E-03
 -1.0265000E-03    1.0573454E-02
 -1.0260000E-03    1.3359314E-02
 -1.0255000E-03    1.5120921E-02
 -1.0250000E-03    1.5733013E-02
 -1.0245000E-03    1.5153585E-02
 -1.0240000E-03    1.3425736E-02
 -1.0235000E-03    1.0673355E-02
 -1.0230000E-03    7.0911949E-03
 -1.0225000E-03    2.9302079E-03
 -1.0220000E-03   -1.5206039E-03
 -1.0215000E-03   -5.9544183E-03
 -1.0210000E-03   -1.0067404E-02
 -1.0205000E-03   -1.3578661E-02
 -1.0200000E-03   -1.6247986E-02
 -1.0195000E-03   -1.7890399E-02
 -1.0190000E-03   -1.8386679E-02
 -1.0185000E-03   -1.7689435E-02
 -1.0180000E-03   -1.5824646E-02
 -1.0174999E-03   -1.2888815E-02
 -1.0169999E-03   -9.0422016E-03
 -1.0165001E-03   -4.4987509E-03
 -1.0160001E-03    4.8652460E-04
 -1.0155000E-03    5.6319111E-03
 -1.0150000E-03    1.0644303E-02
 -1.0145000E-03    1.5234690E-02
 -1.0140000E-03    1.9133171E-02
 -1.0135000E-03    2.2102859E-02
 -1.0130000E-03    2.3952231E-02
 -1.0125000E-03    2.4545440E-02
 -1.0120000E-03    2.3810279E-02
 -1.0115000E-03    2.1743435E-02
 -1.0110000E-03    1.8412808E-02
 -1.0105000E-03    1.3956609E-02
 -1.0100000E-03    8.5791228E-03
 -1.0095000E-03    2.5430003E-03
 -1.0090000E-03   -3.8418514E-03
 -1.0085000E-03   -1.0232591E-02
 -1.0080000E-03   -1.6270580E-02
 -1.0075000E-03   -2.1600688E-02
 -1.0070000E-03   -2.5891952E-02
 -1.0065000E-03   -2.8858405E-02
 -1.0060000E-03   -3.0278910E-02
 -1.0055000E-03   -3.0014537E-02
 -1.0050000E-03   -2.8022109E-02
 -1.0045000E-03   -2.4362605E-02
 -1.0040000E-03   -1.9203341E-02
 -1.0035000E-03   -1.2813192E-02
 -1.0030000E-03   -5.5505652E-03
 -1.0025000E-03    2.1556241E-03
 -1.0019999E-03    9.8311380E-03
 -1.0014999E-03    1.6986389E-02
 -1.0010001E-03    2.3149284E-02
 -1.0005001E-03    2.7898677E-02
 -1.0000000E-03    3.0895907E-02
 -9.9950004E-04    3.1911891E-02
 -9.9900004E-04    3.0847380E-02
 -9.9850004E-04    2.7744483E-02
 -9.9800003E-04    2.2788065E-02
 -9.9750003E-04    1.6296428E-02
 -9.9700002E-04    8.7015638E-03
 -9.9650002E-04    5.2008301E-04
 -9.9600002E-04   -7.6831640E-03
 -9.9550001E-04   -1.5336126E-02
 -9.9500001E-04   -2.1902064E-02
 -9.9450001E-04   -2.6920103E-02
 -9.9400000E-04   -3.0040473E-02
 -9.9350000E-04   -3.1051401E-02
 -9.9299999E-04   -2.9895272E-02
 -9.9249999E-04   -2.6672503E-02
 -9.9199999E-04   -2.1632686E-02
 -9.9149998E-04   -1.5153555E-02
 -9.9099998E-04   -7.7094999E-03
 -9.9049998E-04    1.6772634E-04
 -9.8999997E-04    7.9327375E-03
 -9.8949997E-04    1.5070834E-02
 -9.8899996E-04    2.1139001E-02
 -9.8849996E-04    2.5799921E-02
 -9.8799996E-04    2.8845942E-02
 -9.8749995E-04    3.0210892E-02
 -9.8699995E-04    2.9968694E-02
 -9.8649994E-04    2.8319066E-02
 -9.8600006E-04    2.5561746E-02
 -9.8550005E-04    2.2061877E-02
 -9.8500005E-04    1.8210018E-02
 -9.8450005E-04    1.4380825E-02
 -9.8400004E-04    1.0894638E-02
 -9.8350004E-04    7.9859011E-03
 -9.8300003E-04    5.7817553E-03
 -9.8250003E-04    4.2931167E-03
 -9.8200003E-04    3.4193003E-03
 -9.8150002E-04    2.9658603E-03
 -9.8100002E-04    2.6739293E-03
 -9.8050002E-04    2.2580761E-03
 -9.8000001E-04    1.4487106E-03
 -9.7950001E-04    3.4450863E-05
 -9.7900000E-04   -2.1002903E-03
 -9.7850000E-04   -4.9469383E-03
 -9.7800000E-04   -8.3572650E-03
 -9.7749999E-04   -1.2043235E-02
 -9.7699999E-04   -1.5593187E-02
 -9.7649998E-04   -1.8503694E-02
 -9.7599998E-04   -2.0224791E-02
 -9.7549998E-04   -2.0214800E-02
 -9.7499997E-04   -1.7999759E-02
 -9.7450003E-04   -1.3231763E-02
 -9.7400002E-04   -5.7403110E-03
 -9.7350002E-04    4.4289078E-03
 -9.7300002E-04    1.6992426E-02
 -9.7250001E-04    3.1427845E-02
 -9.7200001E-04    4.6994571E-02
 -9.7150001E-04    6.2775977E-02
 -9.7100000E-04    7.7740349E-02
 -9.7050000E-04    9.0816349E-02
 -9.6999999E-04    0.1009770    
 -9.6949999E-04    0.1073251    
 -9.6899999E-04    0.1091732    
 -9.6849998E-04    0.1061102    
 -9.6799998E-04    9.8048881E-02
 -9.6749997E-04    8.5249431E-02
 -9.6700003E-04    6.8316020E-02
 -9.6650003E-04    4.8165809E-02
 -9.6600002E-04    2.5972260E-02
 -9.6550002E-04    3.0865995E-03
 -9.6500001E-04   -1.9056521E-02
 -9.6450001E-04   -3.9041866E-02
 -9.6400001E-04   -5.5576671E-02
 -9.6350000E-04   -6.7585662E-02
 -9.6300000E-04   -7.4290246E-02
 -9.6249999E-04   -7.5265460E-02
 -9.6199999E-04   -7.0470057E-02
 -9.6149999E-04   -6.0247347E-02
 -9.6099998E-04   -4.5296900E-02
 -9.6049998E-04   -2.6619561E-02
 -9.5999998E-04   -5.4405127E-03
 -9.5949997E-04    1.6883150E-02
 -9.5900003E-04    3.8962699E-02
 -9.5850002E-04    5.9477717E-02
 -9.5800002E-04    7.7267721E-02
 -9.5750001E-04    9.1408424E-02
 -9.5700001E-04    0.1012669    
 -9.5650001E-04    0.1065323    
 -9.5600000E-04    0.1072201    
 -9.5550000E-04    0.1036512    
 -9.5500000E-04    9.6408680E-02
 -9.5449999E-04    8.6276628E-02
 -9.5399999E-04    7.4167147E-02
 -9.5349998E-04    6.1042544E-02
 -9.5299998E-04    4.7839165E-02
 -9.5249998E-04    3.5399266E-02
 -9.5199997E-04    2.4416121E-02
 -9.5150003E-04    1.5396056E-02
 -9.5100002E-04    8.6393459E-03
 -9.5050002E-04    4.2401152E-03
 -9.5000002E-04    2.1036095E-03
 -9.4950001E-04    1.9777564E-03
 -9.4900001E-04    3.4948331E-03
 -9.4850000E-04    6.2184604E-03
 -9.4800000E-04    9.6910512E-03
 -9.4750000E-04    1.3477215E-02
 -9.4699999E-04    1.7199446E-02
 -9.4649999E-04    2.0563547E-02
 -9.4599999E-04    2.3372523E-02
 -9.4549998E-04    2.5529021E-02
 -9.4499998E-04    2.7027588E-02
 -9.4449997E-04    2.7938953E-02
 -9.4400003E-04    2.8389215E-02
 -9.4350002E-04    2.8537035E-02
 -9.4300002E-04    2.8551744E-02
 -9.4250002E-04    2.8594878E-02
 -9.4200001E-04    2.8806783E-02
 -9.4150001E-04    2.9299144E-02
 -9.4100001E-04    3.0153202E-02
 -9.4050000E-04    3.1422738E-02
 -9.4000000E-04    3.3140078E-02
 -9.3949999E-04    3.5323162E-02
 -9.3899999E-04    3.7981544E-02
 -9.3849999E-04    4.1119613E-02
 -9.3799998E-04    4.4735733E-02
 -9.3749998E-04    4.8816979E-02
 -9.3699998E-04    5.3329829E-02
 -9.3649997E-04    5.8208168E-02
 -9.3600003E-04    6.3340656E-02
 -9.3550002E-04    6.8559878E-02
 -9.3500002E-04    7.3635936E-02
 -9.3450001E-04    7.8276850E-02
 -9.3400001E-04    8.2137458E-02
 -9.3350001E-04    8.4837697E-02
 -9.3300000E-04    8.5989907E-02
 -9.3250000E-04    8.5233562E-02
 -9.3200000E-04    8.2274750E-02
 -9.3149999E-04    7.6926611E-02
 -9.3099999E-04    6.9146372E-02
 -9.3049998E-04    5.9064493E-02
 -9.2999998E-04    4.7001660E-02
 -9.2949998E-04    3.3470251E-02
 -9.2899997E-04    1.9158138E-02
 -9.2850003E-04    4.8943753E-03
 -9.2800002E-04   -8.4018810E-03
 -9.2750002E-04   -1.9786034E-02
 -9.2700002E-04   -2.8361434E-02
 -9.2650001E-04   -3.3355366E-02
 -9.2600001E-04   -3.4190744E-02
 -9.2550000E-04   -3.0546566E-02
 -9.2500000E-04   -2.2400731E-02
 -9.2450000E-04   -1.0050061E-02
 -9.2399999E-04    5.8956686E-03
 -9.2349999E-04    2.4546731E-02
 -9.2299999E-04    4.4791948E-02
 -9.2249998E-04    6.5378673E-02
 -9.2199998E-04    8.5008062E-02
 -9.2149997E-04    0.1024377    
 -9.2100003E-04    0.1165827    
 -9.2050002E-04    0.1266058    
 -9.2000002E-04    0.1319883    
 -9.1950002E-04    0.1325753    
 -9.1900001E-04    0.1285888    
 -9.1850001E-04    0.1206086    
 -9.1800001E-04    0.1095215    
 -9.1750000E-04    9.6441627E-02
 -9.1700000E-04    8.2610726E-02
 -9.1649999E-04    6.9285512E-02
 -9.1599999E-04    5.7623677E-02
 -9.1549999E-04    4.8578534E-02
 -9.1499998E-04    4.2812519E-02
 -9.1449998E-04    4.0638037E-02
 -9.1399997E-04    4.1991565E-02
 -9.1349997E-04    4.6443958E-02
 -9.1300003E-04    5.3246345E-02
 -9.1250002E-04    6.1407726E-02
 -9.1200002E-04    6.9797091E-02
 -9.1150001E-04    7.7260524E-02
 -9.1100001E-04    8.2742058E-02
 -9.1050001E-04    8.5396454E-02
 -9.1000000E-04    8.4682785E-02
 -9.0950000E-04    8.0429263E-02
 -9.0899999E-04    7.2862320E-02
 -9.0849999E-04    6.2596396E-02
 -9.0799999E-04    5.0584663E-02
 -9.0749998E-04    3.8034428E-02
 -9.0699998E-04    2.6294803E-02
 -9.0649998E-04    1.6726794E-02
 -9.0599997E-04    1.0567913E-02
 -9.0550003E-04    8.8042403E-03
 -9.0500002E-04    1.2062334E-02
 -9.0450002E-04    2.0531757E-02
 -9.0400001E-04    3.3926331E-02
 -9.0350001E-04    5.1488660E-02
 -9.0300001E-04    7.2038554E-02
 -9.0250000E-04    9.4061889E-02
 -9.0200000E-04    0.1158325    
 -9.0150000E-04    0.1355569    
 -9.0099999E-04    0.1515285    
 -9.0049999E-04    0.1622787    
 -8.9999998E-04    0.1667098    
 -8.9949998E-04    0.1641988    
 -8.9899998E-04    0.1546620    
 -8.9849997E-04    0.1385743    
 -8.9800003E-04    0.1169409    
 -8.9750002E-04    9.1224521E-02
 -8.9700002E-04    6.3233010E-02
 -8.9650002E-04    3.4977630E-02
 -8.9600001E-04    8.5144192E-03
 -8.9550001E-04   -1.4218053E-02
 -8.9500000E-04   -3.1550501E-02
 -8.9450000E-04   -4.2211402E-02
 -8.9400000E-04   -4.5421496E-02
 -8.9349999E-04   -4.0946629E-02
 -8.9299999E-04   -2.9105233E-02
 -8.9249999E-04   -1.0730503E-02
 -8.9199998E-04    1.2908476E-02
 -8.9149998E-04    4.0219016E-02
 -8.9099997E-04    6.9420099E-02
 -8.9050003E-04    9.8688483E-02
 -8.9000002E-04    0.1263028    
 -8.8950002E-04    0.1507731    
 -8.8900002E-04    0.1709462    
 -8.8850001E-04    0.1860768    
 -8.8800001E-04    0.1958618    
 -8.8750001E-04    0.2004343    
 -8.8700000E-04    0.2003206    
 -8.8650000E-04    0.1963657    
 -8.8599999E-04    0.1896340    
 -8.8549999E-04    0.1812973    
 -8.8499999E-04    0.1725180    
 -8.8449998E-04    0.1643406    
 -8.8399998E-04    0.1575995    
 -8.8349998E-04    0.1528513    
 -8.8299997E-04    0.1503362    
 -8.8250003E-04    0.1499717    
 -8.8200002E-04    0.1513766    
 -8.8150002E-04    0.1539230    
 -8.8100001E-04    0.1568102    
 -8.8050001E-04    0.1591523    
 -8.8000001E-04    0.1600728    
 -8.7950000E-04    0.1587961    
 -8.7900000E-04    0.1547287    
 -8.7850000E-04    0.1475229    
 -8.7799999E-04    0.1371191    
 -8.7749999E-04    0.1237622    
 -8.7699998E-04    0.1079932    
 -8.7649998E-04    9.0615794E-02
 -8.7599998E-04    7.2642379E-02
 -8.7549997E-04    5.5223890E-02
 -8.7500003E-04    3.9568860E-02
 -8.7450002E-04    2.6858322E-02
 -8.7400002E-04    1.8162420E-02
 -8.7350002E-04    1.4364435E-02
 -8.7300001E-04    1.6096989E-02
 -8.7250001E-04    2.3694083E-02
 -8.7200000E-04    3.7161443E-02
 -8.7150000E-04    5.6166351E-02
 -8.7100000E-04    8.0046982E-02
 -8.7049999E-04    0.1078404    
 -8.6999999E-04    0.1383269    
 -8.6949999E-04    0.1700892    
 -8.6899998E-04    0.2015823    
 -8.6849998E-04    0.2312115    
 -8.6799997E-04    0.2574147    
 -8.6750003E-04    0.2787459    
 -8.6700002E-04    0.2939554    
 -8.6650002E-04    0.3020631    
 -8.6600002E-04    0.3024224    
 -8.6550001E-04    0.2947692    
 -8.6500001E-04    0.2792542    
 -8.6450001E-04    0.2564556    
 -8.6400000E-04    0.2273693    
 -8.6350000E-04    0.1933758    
 -8.6299999E-04    0.1561843    
 -8.6249999E-04    0.1177539    
 -8.6199999E-04    8.0196209E-02
 -8.6149998E-04    4.5662522E-02
 -8.6099998E-04    1.6221292E-02
 -8.6049997E-04   -6.2664277E-03
 -8.5999997E-04   -2.0266559E-02
 -8.5950003E-04   -2.4678141E-02
 -8.5900002E-04   -1.8918157E-02
 -8.5850002E-04   -2.9779600E-03
 -8.5800001E-04    2.2554340E-02
 -8.5750001E-04    5.6509137E-02
 -8.5700001E-04    9.7189292E-02
 -8.5650000E-04    0.1424612    
 -8.5600000E-04    0.1898782    
 -8.5549999E-04    0.2368300    
 -8.5499999E-04    0.2807067    
 -8.5449999E-04    0.3190694    
 -8.5399998E-04    0.3498118    
 -8.5349998E-04    0.3713039    
 -8.5299998E-04    0.3825051    
 -8.5249997E-04    0.3830388    
 -8.5200003E-04    0.3732203    
 -8.5150002E-04    0.3540380    
 -8.5100002E-04    0.3270857    
 -8.5050002E-04    0.2944511    
 -8.5000001E-04    0.2585694    
 -8.4950001E-04    0.2220507    
 -8.4900000E-04    0.1874952    
 -8.4850000E-04    0.1573090    
 -8.4800000E-04    0.1335355    
 -8.4749999E-04    0.1177136    
 -8.4699999E-04    0.1107741    
 -8.4649998E-04    0.1129827    
 -8.4599998E-04    0.1239324    
 -8.4549998E-04    0.1425860    
 -8.4499997E-04    0.1673656    
 -8.4450003E-04    0.1962817    
 -8.4400002E-04    0.2270913    
 -8.4350002E-04    0.2574731    
 -8.4300002E-04    0.2852056    
 -8.4250001E-04    0.3083363    
 -8.4200001E-04    0.3253269    
 -8.4150000E-04    0.3351647    
 -8.4100000E-04    0.3374341    
 -8.4050000E-04    0.3323394    
 -8.3999999E-04    0.3206821    
 -8.3949999E-04    0.3037916    
 -8.3899999E-04    0.2834172    
 -8.3849998E-04    0.2615894    
 -8.3799998E-04    0.2404606    
 -8.3749997E-04    0.2221383    
 -8.3700003E-04    0.2085224    
 -8.3650002E-04    0.2011587    
 -8.3600002E-04    0.2011198    
 -8.3550002E-04    0.2089208    
 -8.3500001E-04    0.2244763    
 -8.3450001E-04    0.2471020    
 -8.3400001E-04    0.2755595    
 -8.3350000E-04    0.3081427    
 -8.3300000E-04    0.3427975    
 -8.3249999E-04    0.3772694    
 -8.3199999E-04    0.4092656    
 -8.3149999E-04    0.4366226    
 -8.3099998E-04    0.4574668    
 -8.3049998E-04    0.4703564    
 -8.2999998E-04    0.4743958    
 -8.2949997E-04    0.4693115    
 -8.2900003E-04    0.4554868    
 -8.2850002E-04    0.4339489    
 -8.2800002E-04    0.4063095    
 -8.2750001E-04    0.3746622    
 -8.2700001E-04    0.3414418    
 -8.2650001E-04    0.3092547    
 -8.2600000E-04    0.2806911    
 -8.2550000E-04    0.2581328    
 -8.2500000E-04    0.2435693    
 -8.2449999E-04    0.2384362    
 -8.2399999E-04    0.2434893    
 -8.2349998E-04    0.2587236    
 -8.2299998E-04    0.2833470    
 -8.2249998E-04    0.3158111    
 -8.2199997E-04    0.3539012    
 -8.2150003E-04    0.3948795    
 -8.2100002E-04    0.4356740    
 -8.2050002E-04    0.4731002    
 -8.2000002E-04    0.5041003    
 -8.1950001E-04    0.5259817    
 -8.1900001E-04    0.5366360    
 -8.1850000E-04    0.5347219    
 -8.1800000E-04    0.5197933    
 -8.1750000E-04    0.4923639    
 -8.1699999E-04    0.4538974    
 -8.1649999E-04    0.4067234    
 -8.1599999E-04    0.3538819    
 -8.1549998E-04    0.2989072    
 -8.1499998E-04    0.2455668    
 -8.1449997E-04    0.1975746    
 -8.1400003E-04    0.1583017    
 -8.1350002E-04    0.1305086    
 -8.1300002E-04    0.1161217    
 -8.1250002E-04    0.1160735    
 -8.1200001E-04    0.1302226    
 -8.1150001E-04    0.1573605    
 -8.1100001E-04    0.1953079    
 -8.1050000E-04    0.2410931    
 -8.1000000E-04    0.2911995    
 -8.0949999E-04    0.3418612    
 -8.0899999E-04    0.3893818    
 -8.0849999E-04    0.4304499    
 -8.0799998E-04    0.4624218    
 -8.0749998E-04    0.4835472    
 -8.0699997E-04    0.4931168    
 -8.0649997E-04    0.4915170    
 -8.0600003E-04    0.4801874    
 -8.0550002E-04    0.4614823    
 -8.0500002E-04    0.4384493    
 -8.0450001E-04    0.4145446    
 -8.0400001E-04    0.3933096    
 -8.0350001E-04    0.3780409    
 -8.0300000E-04    0.3714815    
 -8.0250000E-04    0.3755651    
 -8.0200000E-04    0.3912357    
 -8.0149999E-04    0.4183617    
 -8.0099999E-04    0.4557513    
 -8.0049998E-04    0.5012704    
 -7.9999998E-04    0.5520499    
 -7.9949998E-04    0.6047638    
 -7.9899997E-04    0.6559525    
 -7.9850003E-04    0.7023574    
 -7.9800002E-04    0.7412369    
 -7.9750002E-04    0.7706305    
 -7.9700002E-04    0.7895468    
 -7.9650001E-04    0.7980543    
 -7.9600001E-04    0.7972674    
 -7.9550000E-04    0.7892286    
 -7.9500000E-04    0.7766957    
 -7.9450000E-04    0.7628590    
 -7.9399999E-04    0.7510132    
 -7.9349999E-04    0.7442181    
 -7.9299998E-04    0.7449836    
 -7.9249998E-04    0.7550096    
 -7.9199998E-04    0.7750081    
 -7.9149997E-04    0.8046277    
 -7.9100003E-04    0.8424866    
 -7.9050002E-04    0.8863138    
 -7.9000002E-04    0.9331843    
 -7.8950002E-04    0.9798239    
 -7.8900001E-04     1.022955    
 -7.8850001E-04     1.059646    
 -7.8800000E-04     1.087630    
 -7.8750000E-04     1.105556    
 -7.8700000E-04     1.113152    
 -7.8649999E-04     1.111278    
 -7.8599999E-04     1.101856    
 -7.8549999E-04     1.087698    
 -7.8499998E-04     1.072235    
 -7.8449998E-04     1.059171    
 -7.8399997E-04     1.052116    
 -7.8350003E-04     1.054209    
 -7.8300002E-04     1.067796    
 -7.8250002E-04     1.094165    
 -7.8200002E-04     1.133406    
 -7.8150001E-04     1.184369    
 -7.8100001E-04     1.244757    
 -7.8050001E-04     1.311334    
 -7.8000000E-04     1.380219    
 -7.7950000E-04     1.447260    
 -7.7899999E-04     1.508424    
 -7.7849999E-04     1.560181    
 -7.7799999E-04     1.599840    
 -7.7749998E-04     1.625802    
 -7.7699998E-04     1.637693    
 -7.7649998E-04     1.636393    
 -7.7599997E-04     1.623920    
 -7.7550003E-04     1.603215    
 -7.7500002E-04     1.577831    
 -7.7450002E-04     1.551566    
 -7.7400001E-04     1.528076    
 -7.7350001E-04     1.510510    
 -7.7300001E-04     1.501207    
 -7.7250000E-04     1.501480    
 -7.7200000E-04     1.511515    
 -7.7150000E-04     1.530396    
 -7.7099999E-04     1.556240    
 -7.7049999E-04     1.586447    
 -7.6999998E-04     1.618012    
 -7.6949998E-04     1.647888    
 -7.6899998E-04     1.673340    
 -7.6849997E-04     1.692260    
 -7.6800003E-04     1.703412    
 -7.6750002E-04     1.706566    
 -7.6700002E-04     1.702518    
 -7.6650002E-04     1.692987    
 -7.6600001E-04     1.680407    
 -7.6550001E-04     1.667629    
 -7.6500000E-04     1.657573    
 -7.6450000E-04     1.652867    
 -7.6400000E-04     1.655521    
 -7.6349999E-04     1.666666    
 -7.6299999E-04     1.686393    
 -7.6249999E-04     1.713721    
 -7.6199998E-04     1.746686    
 -7.6149998E-04     1.782554    
 -7.6099997E-04     1.818133    
 -7.6050003E-04     1.850151    
 -7.6000002E-04     1.875654    
 -7.5950002E-04     1.892382    
 -7.5900002E-04     1.899080    
 -7.5850001E-04     1.895691    
 -7.5800001E-04     1.883426    
 -7.5750001E-04     1.864682    
 -7.5700000E-04     1.842809    
 -7.5650000E-04     1.821763    
 -7.5599999E-04     1.805662    
 -7.5549999E-04     1.798300    
 -7.5499999E-04     1.802676    
 -7.5449998E-04     1.820582    
 -7.5399998E-04     1.852308    
 -7.5349997E-04     1.896503    
 -7.5299997E-04     1.950212    
 -7.5250003E-04     2.009097    
 -7.5200002E-04     2.067823    
 -7.5150002E-04     2.120587    
 -7.5100001E-04     2.161719    
 -7.5050001E-04     2.186318    
 -7.5000001E-04     2.190839    
 -7.4950000E-04     2.173564    
 -7.4900000E-04     2.134924    
 -7.4850000E-04     2.077589    
 -7.4799999E-04     2.006352    
 -7.4749999E-04     1.927771    
 -7.4699998E-04     1.849613    
 -7.4649998E-04     1.780141    
 -7.4599998E-04     1.727321    