 -1.2000001E-03    1.0000000E-24
 -1.1995001E-03    1.0000000E-24
 -1.1990000E-03    1.0000000E-24
 -1.1985000E-03    1.0000000E-24
 -1.1980000E-03    1.0000000E-24
 -1.1975000E-03    1.0000000E-24
 -1.1970000E-03    1.0000000E-24
 -1.1965000E-03    1.0000000E-24
 -1.1960000E-03    1.0000001E-24
 -1.1955000E-03    1.0000001E-24
 -1.1950000E-03    1.0000001E-24
 -1.1945000E-03    1.0000001E-24
 -1.1940000E-03    1.0000001E-24
 -1.1935000E-03    1.0000001E-24
 -1.1930000E-03    1.0000001E-24
 -1.1925000E-03    1.0000001E-24
 -1.1920000E-03    1.0000001E-24
 -1.1915000E-03    1.0000001E-24
 -1.1910000E-03    1.0000001E-24
 -1.1905000E-03    1.0000002E-24
 -1.1900000E-03    1.0000003E-24
 -1.1895000E-03    1.0000004E-24
 -1.1890000E-03    1.0000005E-24
 -1.1885000E-03    1.0000007E-24
 -1.1880000E-03    1.0000010E-24
 -1.1875000E-03    1.0000015E-24
 -1.1870000E-03    1.0000039E-24
 -1.1865000E-03    1.0000071E-24
 -1.1860000E-03    1.0000104E-24
 -1.1854999E-03    1.0000095E-24
 -1.1849999E-03    1.0000164E-24
 -1.1845001E-03    1.0000082E-24
 -1.1840001E-03    9.9997280E-25
 -1.1835000E-03    9.9995427E-25
 -1.1830000E-03    9.9990940E-25
 -1.1825000E-03    9.9968388E-25
 -1.1820000E-03    9.9914213E-25
 -1.1815000E-03    9.9831422E-25
 -1.1810000E-03    9.9682377E-25
 -1.1805000E-03    9.9629711E-25
 -1.1800000E-03    9.9468635E-25
 -1.1795000E-03    9.8548636E-25
 -1.1790000E-03    9.7604498E-25
 -1.1785000E-03    9.6359202E-25
 -1.1780000E-03    9.5559632E-25
 -1.1775000E-03    9.3169965E-25
 -1.1770000E-03    8.6057990E-25
 -1.1765000E-03    8.0752984E-25
 -1.1760000E-03    7.7664594E-25
 -1.1755000E-03    8.0551218E-25
 -1.1750000E-03    9.4231309E-25
 -1.1745000E-03    1.1138039E-24
 -1.1740000E-03    1.2698720E-24
 -1.1735000E-03    1.6726592E-24
 -1.1730000E-03    1.7053751E-24
 -1.1725000E-03    9.8252754E-25
 -1.1720000E-03   -1.2206021E-24
 -1.1715000E-03   -1.0490826E-24
 -1.1710000E-03   -3.0671322E-24
 -1.1704999E-03   -2.0629748E-24
 -1.1699999E-03    1.0074792E-24
 -1.1695001E-03    2.2123529E-24
 -1.1690001E-03    1.7521660E-24
 -1.1685000E-03    2.4021430E-24
 -1.1680000E-03    1.3249590E-24
 -1.1675000E-03   -2.7129690E-24
 -1.1670000E-03   -7.7380660E-24
 -1.1665000E-03    2.0401649E-24
 -1.1660000E-03   -1.4826907E-23
 -1.1655000E-03   -3.5641228E-23
 -1.1650000E-03   -8.1127459E-23
 -1.1645000E-03   -3.1874783E-23
 -1.1640000E-03    5.7838581E-23
 -1.1635000E-03    1.8110476E-22
 -1.1630000E-03    4.1045781E-22
 -1.1625000E-03    7.4639176E-22
 -1.1620000E-03    1.0586403E-21
 -1.1615000E-03    1.3472072E-21
 -1.1610000E-03    1.5015688E-21
 -1.1605000E-03    1.5454040E-21
 -1.1600000E-03    1.6681942E-21
 -1.1595000E-03    1.7278264E-21
 -1.1590000E-03    1.6295641E-21
 -1.1585000E-03    1.7207766E-21
 -1.1580000E-03    1.8751484E-21
 -1.1575000E-03    2.4716027E-21
 -1.1570000E-03    4.1101466E-21
 -1.1565000E-03    5.8818745E-21
 -1.1560000E-03    7.9062327E-21
 -1.1555000E-03    1.1699038E-20
 -1.1549999E-03    1.5365591E-20
 -1.1544999E-03    1.7895274E-20
 -1.1540001E-03    2.4214540E-20
 -1.1535001E-03    2.9270662E-20
 -1.1530000E-03    2.5737271E-20
 -1.1525000E-03    1.6393337E-20
 -1.1520000E-03   -6.0875969E-21
 -1.1515000E-03   -3.0084355E-20
 -1.1510000E-03   -6.2923474E-20
 -1.1505000E-03   -1.0713126E-19
 -1.1500000E-03   -1.4091793E-19
 -1.1495000E-03   -1.8405230E-19
 -1.1490000E-03   -2.1152347E-19
 -1.1485000E-03   -2.2787877E-19
 -1.1480000E-03   -2.6848786E-19
 -1.1475000E-03   -3.1111855E-19
 -1.1470000E-03   -3.7800249E-19
 -1.1465000E-03   -3.9435983E-19
 -1.1460000E-03   -3.7433759E-19
 -1.1455000E-03   -4.1090590E-19
 -1.1450000E-03   -4.1109424E-19
 -1.1445000E-03   -3.7389192E-19
 -1.1440000E-03   -2.3045534E-19
 -1.1435000E-03   -1.7291435E-19
 -1.1430000E-03   -1.8813016E-19
 -1.1425000E-03   -4.5395812E-19
 -1.1420000E-03   -9.3806376E-19
 -1.1415000E-03   -1.3979157E-18
 -1.1410000E-03   -1.9628634E-18
 -1.1405000E-03   -2.4954738E-18
 -1.1399999E-03   -3.1897747E-18
 -1.1394999E-03   -4.1508626E-18
 -1.1390001E-03   -4.7562389E-18
 -1.1385001E-03   -4.7350755E-18
 -1.1380001E-03   -4.1343633E-18
 -1.1375000E-03   -3.2183650E-18
 -1.1370000E-03   -1.2352279E-18
 -1.1365000E-03    1.5886822E-18
 -1.1360000E-03    4.3155750E-18
 -1.1355000E-03    7.6892162E-18
 -1.1350000E-03    1.1224542E-17
 -1.1345000E-03    1.5406629E-17
 -1.1340000E-03    2.0041430E-17
 -1.1335000E-03    2.3156357E-17
 -1.1330000E-03    2.5301177E-17
 -1.1325000E-03    2.6653750E-17
 -1.1320000E-03    2.3212278E-17
 -1.1315000E-03    1.5760959E-17
 -1.1310000E-03    6.4340573E-18
 -1.1305000E-03   -2.1167637E-18
 -1.1300000E-03   -9.2447401E-18
 -1.1295000E-03   -1.7407510E-17
 -1.1290000E-03   -2.8804030E-17
 -1.1285000E-03   -3.7742888E-17
 -1.1280000E-03   -4.3965361E-17
 -1.1275000E-03   -4.2297470E-17
 -1.1270000E-03   -4.3345899E-17
 -1.1265000E-03   -4.5412920E-17
 -1.1260000E-03   -4.3211376E-17
 -1.1255000E-03   -3.5577081E-17
 -1.1250000E-03   -2.9236308E-17
 -1.1244999E-03   -2.5482533E-17
 -1.1239999E-03   -2.7937539E-17
 -1.1235001E-03   -1.7975028E-17
 -1.1230001E-03    4.9224720E-18
 -1.1225000E-03    2.8854872E-17
 -1.1220000E-03    5.4339400E-17
 -1.1215000E-03    8.6550078E-17
 -1.1210000E-03    1.1015881E-16
 -1.1205000E-03    1.2652385E-16
 -1.1200000E-03    1.3667999E-16
 -1.1195000E-03    1.4476645E-16
 -1.1190000E-03    1.6837480E-16
 -1.1185000E-03    2.1888794E-16
 -1.1180000E-03    2.5698360E-16
 -1.1175000E-03    2.8266175E-16
 -1.1170000E-03    3.0213107E-16
 -1.1165000E-03    3.3608745E-16
 -1.1160000E-03    3.8556590E-16
 -1.1155000E-03    4.3892477E-16
 -1.1150000E-03    4.8866210E-16
 -1.1145000E-03    5.5599105E-16
 -1.1140000E-03    6.5850305E-16
 -1.1135000E-03    6.9892728E-16
 -1.1130000E-03    7.9316155E-16
 -1.1125000E-03    8.7911755E-16
 -1.1120000E-03    8.9056790E-16
 -1.1115000E-03    8.6890424E-16
 -1.1110000E-03    7.9757051E-16
 -1.1105000E-03    6.6414980E-16
 -1.1100000E-03    4.8933739E-16
 -1.1094999E-03    1.8465877E-16
 -1.1089999E-03   -1.6555070E-16
 -1.1084999E-03   -5.9026581E-16
 -1.1080001E-03   -9.8186778E-16
 -1.1075001E-03   -1.3486341E-15
 -1.1070000E-03   -1.6408945E-15
 -1.1065000E-03   -1.5854627E-15
 -1.1060000E-03   -1.1823381E-15
 -1.1055000E-03   -8.3716337E-16
 -1.1050000E-03   -3.7609197E-16
 -1.1045000E-03    2.2571168E-16
 -1.1040000E-03    8.5648822E-16
 -1.1035000E-03    1.5307232E-15
 -1.1030000E-03    2.3291329E-15
 -1.1025000E-03    3.2268830E-15
 -1.1020000E-03    3.7934980E-15
 -1.1015000E-03    4.0620918E-15
 -1.1010000E-03    3.7346386E-15
 -1.1005000E-03    3.7052093E-15
 -1.1000000E-03    2.7154849E-15
 -1.0995000E-03    1.7588747E-15
 -1.0990000E-03    3.7178854E-16
 -1.0985000E-03   -1.3215996E-15
 -1.0980000E-03   -3.4703027E-15
 -1.0975000E-03   -5.0229613E-15
 -1.0970000E-03   -5.7146658E-15
 -1.0965000E-03   -5.2142806E-15
 -1.0960000E-03   -4.1178490E-15
 -1.0955000E-03   -2.6240496E-15
 -1.0950000E-03    1.9429514E-16
 -1.0945000E-03    3.4762262E-15
 -1.0939999E-03    6.6257077E-15
 -1.0934999E-03    9.1460398E-15
 -1.0930001E-03    9.7789039E-15
 -1.0925001E-03    8.7850700E-15
 -1.0920000E-03    5.0924849E-15
 -1.0915000E-03   -4.8756603E-16
 -1.0910000E-03   -7.2597000E-15
 -1.0905000E-03   -1.4031825E-14
 -1.0900000E-03   -2.2790758E-14
 -1.0895000E-03   -3.0754960E-14
 -1.0890000E-03   -3.6070085E-14
 -1.0885000E-03   -3.9001043E-14
 -1.0880000E-03   -3.9812737E-14
 -1.0875000E-03   -3.7842911E-14
 -1.0870000E-03   -3.1866372E-14
 -1.0865000E-03   -2.3538790E-14
 -1.0860000E-03   -1.0575331E-14
 -1.0855000E-03    5.5670016E-15
 -1.0850000E-03    2.7537297E-14
 -1.0845000E-03    5.0832124E-14
 -1.0840000E-03    7.4126936E-14
 -1.0835000E-03    9.3448144E-14
 -1.0830000E-03    1.0641154E-13
 -1.0825000E-03    1.1328208E-13
 -1.0820000E-03    1.1419221E-13
 -1.0815000E-03    1.0768492E-13
 -1.0810000E-03    9.3478759E-14
 -1.0805000E-03    7.2120092E-14
 -1.0800000E-03    4.3079100E-14
 -1.0795000E-03    1.5892486E-14
 -1.0790000E-03   -1.2353754E-14
 -1.0784999E-03   -3.6626379E-14
 -1.0779999E-03   -6.1958624E-14
 -1.0775001E-03   -8.5171582E-14
 -1.0770001E-03   -1.0520565E-13
 -1.0765000E-03   -1.2629938E-13
 -1.0760000E-03   -1.4143264E-13
 -1.0755000E-03   -1.4908224E-13
 -1.0750000E-03   -1.4908262E-13
 -1.0745000E-03   -1.3689721E-13
 -1.0740000E-03   -1.1000939E-13
 -1.0735000E-03   -6.9876152E-14
 -1.0730000E-03   -2.7623649E-14
 -1.0725000E-03    2.2046250E-14
 -1.0720000E-03    8.8140487E-14
 -1.0715000E-03    1.7595722E-13
 -1.0710000E-03    2.5847570E-13
 -1.0705000E-03    3.3509989E-13
 -1.0700000E-03    3.9178142E-13
 -1.0695000E-03    4.3415789E-13
 -1.0690000E-03    4.4977864E-13
 -1.0685000E-03    4.4102780E-13
 -1.0680000E-03    3.9783888E-13
 -1.0675000E-03    3.2670215E-13
 -1.0670000E-03    2.3558973E-13
 -1.0665000E-03    1.1666190E-13
 -1.0660000E-03   -1.2062082E-15
 -1.0655000E-03   -1.3443905E-13
 -1.0650000E-03   -2.7508933E-13
 -1.0645000E-03   -3.8871887E-13
 -1.0640000E-03   -4.7426814E-13
 -1.0634999E-03   -5.2273040E-13
 -1.0629999E-03   -5.2536366E-13
 -1.0625001E-03   -4.6382283E-13
 -1.0620001E-03   -3.4029360E-13
 -1.0615001E-03   -1.9345246E-13
 -1.0610000E-03   -2.6478431E-14
 -1.0605000E-03    2.0195430E-13
 -1.0600000E-03    4.7277248E-13
 -1.0595000E-03    7.7749889E-13
 -1.0590000E-03    1.0461977E-12
 -1.0585000E-03    1.2788694E-12
 -1.0580000E-03    1.4352476E-12
 -1.0575000E-03    1.5386446E-12
 -1.0570000E-03    1.5081308E-12
 -1.0565000E-03    1.3954960E-12
 -1.0560000E-03    1.1853758E-12
 -1.0555000E-03    9.1803572E-13
 -1.0550000E-03    5.5320933E-13
 -1.0545000E-03    1.7566764E-13
 -1.0540000E-03   -1.9339704E-13
 -1.0535000E-03   -4.8193003E-13
 -1.0530000E-03   -6.3483040E-13
 -1.0525000E-03   -8.6826358E-13
 -1.0520000E-03   -1.0741472E-12
 -1.0515000E-03   -1.0956554E-12
 -1.0510000E-03   -9.6643136E-13
 -1.0505000E-03   -7.1640990E-13
 -1.0500000E-03   -3.7314154E-13
 -1.0495000E-03    1.2510857E-14
 -1.0490000E-03    4.3207075E-13
 -1.0485000E-03    8.6010734E-13
 -1.0479999E-03    1.2033729E-12
 -1.0474999E-03    1.4364368E-12
 -1.0470001E-03    1.6695007E-12
 -1.0465001E-03    1.6821616E-12
 -1.0460000E-03    1.3133544E-12
 -1.0455000E-03    1.0568700E-12
 -1.0450000E-03    6.2024908E-13
 -1.0445000E-03    1.5396033E-13
 -1.0440000E-03   -2.3603257E-13
 -1.0435000E-03   -7.4470193E-13
 -1.0430000E-03   -1.5754973E-12
 -1.0425000E-03   -2.5588772E-12
 -1.0420000E-03   -3.9491557E-12
 -1.0415000E-03   -5.2038001E-12
 -1.0410000E-03   -6.1363158E-12
 -1.0405000E-03   -7.0179708E-12
 -1.0400000E-03   -7.5435908E-12
 -1.0395000E-03   -7.8975533E-12
 -1.0390000E-03   -7.6284526E-12
 -1.0385000E-03   -6.8507318E-12
 -1.0380000E-03   -5.7000229E-12
 -1.0375000E-03   -3.9728763E-12
 -1.0370000E-03   -1.4319332E-12
 -1.0365000E-03    1.7532655E-12
 -1.0360000E-03    5.2097280E-12
 -1.0355000E-03    8.8018230E-12
 -1.0350000E-03    1.2597367E-11
 -1.0345000E-03    1.6070784E-11
 -1.0340000E-03    1.8959286E-11
 -1.0335000E-03    2.1192936E-11
 -1.0329999E-03    2.2324571E-11
 -1.0324999E-03    2.2320283E-11
 -1.0319999E-03    2.1366568E-11
 -1.0315001E-03    1.8683534E-11
 -1.0310001E-03    1.5084985E-11
 -1.0305000E-03    1.0570918E-11
 -1.0300000E-03    5.8873188E-12
 -1.0295000E-03    4.9164942E-13
 -1.0290000E-03   -3.6155033E-12
 -1.0285000E-03   -7.2818496E-12
 -1.0280000E-03   -1.0015723E-11
 -1.0275000E-03   -1.2630924E-11
 -1.0270000E-03   -1.4093252E-11
 -1.0265000E-03   -1.4267079E-11
 -1.0260000E-03   -1.1796070E-11
 -1.0255000E-03   -6.6802241E-12
 -1.0250000E-03   -5.4714924E-13
 -1.0245000E-03    6.7387957E-12
 -1.0240000E-03    1.5041983E-11
 -1.0235000E-03    2.4362410E-11
 -1.0230000E-03    3.3581107E-11
 -1.0225000E-03    4.1002660E-11
 -1.0220000E-03    4.5919241E-11
 -1.0215000E-03    4.7902765E-11
 -1.0210000E-03    4.7038009E-11
 -1.0205000E-03    4.1154843E-11
 -1.0200000E-03    3.0931438E-11
 -1.0195000E-03    1.7249408E-11
 -1.0190000E-03    7.1910219E-13
 -1.0185000E-03   -1.7913495E-11
 -1.0180000E-03   -3.8173669E-11
 -1.0174999E-03   -5.7280947E-11
 -1.0169999E-03   -7.3980731E-11
 -1.0165001E-03   -8.6831917E-11
 -1.0160001E-03   -9.5054638E-11
 -1.0155000E-03   -9.7919867E-11
 -1.0150000E-03   -9.3359195E-11
 -1.0145000E-03   -8.1474355E-11
 -1.0140000E-03   -5.9281413E-11
 -1.0135000E-03   -3.1866627E-11
 -1.0130000E-03   -1.7941955E-13
 -1.0125000E-03    3.6729654E-11
 -1.0120000E-03    7.5266314E-11
 -1.0115000E-03    1.1156502E-10
 -1.0110000E-03    1.4243838E-10
 -1.0105000E-03    1.6555946E-10
 -1.0100000E-03    1.8013564E-10
 -1.0095000E-03    1.8430198E-10
 -1.0090000E-03    1.7714295E-10
 -1.0085000E-03    1.5865857E-10
 -1.0080000E-03    1.2939137E-10
 -1.0075000E-03    9.2189666E-11
 -1.0070000E-03    4.6850000E-11
 -1.0065000E-03   -2.1517443E-12
 -1.0060000E-03   -5.2272436E-11
 -1.0055000E-03   -1.0037556E-10
 -1.0050000E-03   -1.4797853E-10
 -1.0045000E-03   -1.8859639E-10
 -1.0040000E-03   -2.1978773E-10
 -1.0035000E-03   -2.4006061E-10
 -1.0030000E-03   -2.4751617E-10
 -1.0025000E-03   -2.4032334E-10
 -1.0019999E-03   -2.1909249E-10
 -1.0014999E-03   -1.8826563E-10
 -1.0010001E-03   -1.5072496E-10
 -1.0005001E-03   -1.0351622E-10
 -1.0000000E-03   -4.6830140E-11
 -9.9950004E-04    1.2738111E-11
 -9.9900004E-04    7.0339658E-11
 -9.9850004E-04    1.2373655E-10
 -9.9800003E-04    1.7089430E-10
 -9.9750003E-04    2.0638759E-10
 -9.9700002E-04    2.3014865E-10
 -9.9650002E-04    2.3831193E-10
 -9.9600002E-04    2.3213202E-10
 -9.9550001E-04    2.0919300E-10
 -9.9500001E-04    1.7275852E-10
 -9.9450001E-04    1.1930212E-10
 -9.9400000E-04    5.4045702E-11
 -9.9350000E-04   -1.4465869E-11
 -9.9299999E-04   -8.3655562E-11
 -9.9249999E-04   -1.5704986E-10
 -9.9199999E-04   -2.1498195E-10
 -9.9149998E-04   -2.6084268E-10
 -9.9099998E-04   -2.9083436E-10
 -9.9049998E-04   -3.0644892E-10
 -9.8999997E-04   -3.0354957E-10
 -9.8949997E-04   -2.7684668E-10
 -9.8899996E-04   -2.3332539E-10
 -9.8849996E-04   -1.7474885E-10
 -9.8799996E-04   -1.0559305E-10
 -9.8749995E-04   -2.3687814E-11
 -9.8699995E-04    5.6589733E-11
 -9.8649994E-04    1.3876607E-10
 -9.8600006E-04    2.1443196E-10
 -9.8550005E-04    2.8453684E-10
 -9.8500005E-04    3.2897318E-10
 -9.8450005E-04    3.5075878E-10
 -9.8400004E-04    3.4907996E-10
 -9.8350004E-04    3.1973202E-10
 -9.8300003E-04    2.6895414E-10
 -9.8250003E-04    1.9918772E-10
 -9.8200003E-04    1.1450182E-10
 -9.8150002E-04    1.8151597E-11
 -9.8100002E-04   -9.8000975E-11
 -9.8050002E-04   -2.2202015E-10
 -9.8000001E-04   -3.4359790E-10
 -9.7950001E-04   -4.4496618E-10
 -9.7900000E-04   -5.3907806E-10
 -9.7850000E-04   -6.0864042E-10
 -9.7800000E-04   -6.4158179E-10
 -9.7749999E-04   -6.3844474E-10
 -9.7699999E-04   -5.8865007E-10
 -9.7649998E-04   -4.9111271E-10
 -9.7599998E-04   -3.4257736E-10
 -9.7549998E-04   -1.5389479E-10
 -9.7499997E-04    7.9817805E-11
 -9.7450003E-04    3.5476275E-10
 -9.7400002E-04    6.3214889E-10
 -9.7350002E-04    8.9990504E-10
 -9.7300002E-04    1.1576582E-09
 -9.7250001E-04    1.3581740E-09
 -9.7200001E-04    1.4935860E-09
 -9.7150001E-04    1.5497883E-09
 -9.7100000E-04    1.5273235E-09
 -9.7050000E-04    1.4104582E-09
 -9.6999999E-04    1.2127558E-09
 -9.6949999E-04    9.4615205E-10
 -9.6899999E-04    6.0522148E-10
 -9.6849998E-04    2.1166566E-10
 -9.6799998E-04   -1.8460258E-10
 -9.6749997E-04   -5.6242450E-10
 -9.6700003E-04   -8.9453800E-10
 -9.6650003E-04   -1.1813501E-09
 -9.6600002E-04   -1.4038721E-09
 -9.6550002E-04   -1.5265683E-09
 -9.6500001E-04   -1.5423859E-09
 -9.6450001E-04   -1.4583779E-09
 -9.6400001E-04   -1.2669489E-09
 -9.6350000E-04   -9.8328967E-10
 -9.6300000E-04   -6.3235694E-10
 -9.6249999E-04   -2.4127719E-10
 -9.6199999E-04    1.3569630E-10
 -9.6149999E-04    4.7686238E-10
 -9.6099998E-04    7.4600703E-10
 -9.6049998E-04    8.8724950E-10
 -9.5999998E-04    9.0615110E-10
 -9.5949997E-04    8.0840840E-10
 -9.5900003E-04    6.0812733E-10
 -9.5850002E-04    3.1453140E-10
 -9.5800002E-04   -7.8890006E-11
 -9.5750001E-04   -5.2656401E-10
 -9.5700001E-04   -1.0089592E-09
 -9.5650001E-04   -1.4647699E-09
 -9.5600000E-04   -1.8847726E-09
 -9.5550000E-04   -2.2570317E-09
 -9.5500000E-04   -2.5458764E-09
 -9.5449999E-04   -2.7384892E-09
 -9.5399999E-04   -2.7927565E-09
 -9.5349998E-04   -2.6527971E-09
 -9.5299998E-04   -2.3782905E-09
 -9.5249998E-04   -1.9117277E-09
 -9.5199997E-04   -1.2921715E-09
 -9.5150003E-04   -6.0751226E-10
 -9.5100002E-04    9.8304857E-11
 -9.5050002E-04    8.2148216E-10
 -9.5000002E-04    1.4898629E-09
 -9.4950001E-04    2.0708950E-09
 -9.4900001E-04    2.5468789E-09
 -9.4850000E-04    2.9159837E-09
 -9.4800000E-04    3.1453864E-09
 -9.4750000E-04    3.2147425E-09
 -9.4699999E-04    3.1397853E-09
 -9.4649999E-04    2.9297385E-09
 -9.4599999E-04    2.5780915E-09
 -9.4549998E-04    2.1591720E-09
 -9.4499998E-04    1.6499215E-09
 -9.4449997E-04    1.0515612E-09
 -9.4400003E-04    3.9016632E-10
 -9.4350002E-04   -2.9726949E-10
 -9.4300002E-04   -9.7249797E-10
 -9.4250002E-04   -1.5799100E-09
 -9.4200001E-04   -2.1102824E-09
 -9.4150001E-04   -2.5023099E-09
 -9.4100001E-04   -2.6632190E-09
 -9.4050000E-04   -2.6521463E-09
 -9.4000000E-04   -2.5266005E-09
 -9.3949999E-04   -2.2305648E-09
 -9.3899999E-04   -1.7984905E-09
 -9.3849999E-04   -1.2693036E-09
 -9.3799998E-04   -6.5059946E-10
 -9.3749998E-04   -1.0194406E-11
 -9.3699998E-04    6.0742411E-10
 -9.3649997E-04    1.1469181E-09
 -9.3600003E-04    1.5605449E-09
 -9.3550002E-04    1.8591554E-09
 -9.3500002E-04    2.0036872E-09
 -9.3450001E-04    2.0424262E-09
 -9.3400001E-04    1.9888000E-09
 -9.3350001E-04    1.8448432E-09
 -9.3300000E-04    1.5001498E-09
 -9.3250000E-04    9.8510200E-10
 -9.3200000E-04    3.7782433E-10
 -9.3149999E-04   -2.6634514E-10
 -9.3099999E-04   -8.5843122E-10
 -9.3049998E-04   -1.4071150E-09
 -9.2999998E-04   -1.8689936E-09
 -9.2949998E-04   -2.2288766E-09
 -9.2899997E-04   -2.4325111E-09
 -9.2850003E-04   -2.4750140E-09
 -9.2800002E-04   -2.3706266E-09
 -9.2750002E-04   -2.1262669E-09
 -9.2700002E-04   -1.7961875E-09
 -9.2650001E-04   -1.3858139E-09
 -9.2600001E-04   -9.3420860E-10
 -9.2550000E-04   -3.6758652E-10
 -9.2500000E-04    2.4243793E-10
 -9.2450000E-04    8.6114271E-10
 -9.2399999E-04    1.4559762E-09
 -9.2349999E-04    1.9900461E-09
 -9.2299999E-04    2.4470768E-09
 -9.2249998E-04    2.7706448E-09
 -9.2199998E-04    2.9147706E-09
 -9.2149997E-04    2.8315754E-09
 -9.2100003E-04    2.5140063E-09
 -9.2050002E-04    2.0380184E-09
 -9.2000002E-04    1.4231425E-09
 -9.1950002E-04    6.3465644E-10
 -9.1900001E-04   -1.4948874E-10
 -9.1850001E-04   -1.0117582E-09
 -9.1800001E-04   -1.8957287E-09
 -9.1750000E-04   -2.7558271E-09
 -9.1700000E-04   -3.5226098E-09
 -9.1649999E-04   -4.2199484E-09
 -9.1599999E-04   -4.8051185E-09
 -9.1549999E-04   -5.1569997E-09
 -9.1499998E-04   -5.4003748E-09
 -9.1449998E-04   -5.4701395E-09
 -9.1399997E-04   -5.4357390E-09
 -9.1349997E-04   -5.1062004E-09
 -9.1300003E-04   -4.4207611E-09
 -9.1250002E-04   -3.3620597E-09
 -9.1200002E-04   -2.0950264E-09
 -9.1150001E-04   -5.9795957E-10
 -9.1100001E-04    9.9459319E-10
 -9.1050001E-04    2.6262079E-09
 -9.1000000E-04    4.2088595E-09
 -9.0950000E-04    5.5647318E-09
 -9.0899999E-04    6.5408314E-09
 -9.0849999E-04    7.0091200E-09
 -9.0799999E-04    7.0086603E-09
 -9.0749998E-04    6.6002168E-09
 -9.0699998E-04    5.5754565E-09
 -9.0649998E-04    4.2208375E-09
 -9.0599997E-04    2.4799363E-09
 -9.0550003E-04    5.9580785E-10
 -9.0500002E-04   -1.3317218E-09
 -9.0450002E-04   -3.0921503E-09
 -9.0400001E-04   -4.5498445E-09
 -9.0350001E-04   -5.6177285E-09
 -9.0300001E-04   -6.1973329E-09
 -9.0250000E-04   -6.2409149E-09
 -9.0200000E-04   -5.6681801E-09
 -9.0150000E-04   -4.4878101E-09
 -9.0099999E-04   -2.7909504E-09
 -9.0049999E-04   -7.1648992E-10
 -8.9999998E-04    1.5706411E-09
 -8.9949998E-04    3.7709640E-09
 -8.9899998E-04    5.8888192E-09
 -8.9849997E-04    7.7505966E-09
 -8.9800003E-04    9.1696641E-09
 -8.9750002E-04    1.0033178E-08
 -8.9700002E-04    1.0423331E-08
 -8.9650002E-04    1.0147254E-08
 -8.9600001E-04    9.2657109E-09
 -8.9550001E-04    7.8329565E-09
 -8.9500000E-04    5.9965610E-09
 -8.9450000E-04    4.0777031E-09
 -8.9400000E-04    2.2109319E-09
 -8.9349999E-04    3.9190745E-10
 -8.9299999E-04   -1.3099264E-09
 -8.9249999E-04   -2.5820710E-09
 -8.9199998E-04   -3.4744407E-09
 -8.9149998E-04   -4.0369490E-09
 -8.9099997E-04   -4.1057526E-09
 -8.9050003E-04   -3.5978442E-09
 -8.9000002E-04   -2.6559115E-09
 -8.8950002E-04   -1.3407185E-09
 -8.8900002E-04    3.3254277E-10
 -8.8850001E-04    2.2097926E-09
 -8.8800001E-04    4.2085655E-09
 -8.8750001E-04    6.3549033E-09
 -8.8700000E-04    8.3710283E-09
 -8.8650000E-04    1.0044269E-08
 -8.8599999E-04    1.1408265E-08
 -8.8549999E-04    1.2423952E-08
 -8.8499999E-04    1.2872013E-08
 -8.8449998E-04    1.2686396E-08
 -8.8399998E-04    1.1905080E-08
 -8.8349998E-04    1.0511789E-08
 -8.8299997E-04    8.7191978E-09
 -8.8250003E-04    6.4947550E-09
 -8.8200002E-04    3.8753543E-09
 -8.8150002E-04    8.9897173E-10
 -8.8100001E-04   -2.3014719E-09
 -8.8050001E-04   -5.8390959E-09
 -8.8000001E-04   -9.2961496E-09
 -8.7950000E-04   -1.2723904E-08
 -8.7900000E-04   -1.6040982E-08
 -8.7850000E-04   -1.8983712E-08
 -8.7799999E-04   -2.1294937E-08
 -8.7749999E-04   -2.2824917E-08
 -8.7699998E-04   -2.3461892E-08
 -8.7649998E-04   -2.3061549E-08
 -8.7599998E-04   -2.1723716E-08
 -8.7549997E-04   -1.9443505E-08
 -8.7500003E-04   -1.6134113E-08
 -8.7450002E-04   -1.1970234E-08
 -8.7400002E-04   -7.3039716E-09
 -8.7350002E-04   -2.6735174E-09
 -8.7300001E-04    1.7930909E-09
 -8.7250001E-04    5.9396061E-09
 -8.7200000E-04    9.7041806E-09
 -8.7150000E-04    1.2984819E-08
 -8.7100000E-04    1.5627984E-08
 -8.7049999E-04    1.7492347E-08
 -8.6999999E-04    1.8656031E-08
 -8.6949999E-04    1.9040641E-08
 -8.6899998E-04    1.8663540E-08
 -8.6849998E-04    1.7546965E-08
 -8.6799997E-04    1.5759278E-08
 -8.6750003E-04    1.3412241E-08
 -8.6700002E-04    1.0671120E-08
 -8.6650002E-04    7.6646982E-09
 -8.6600002E-04    4.8817990E-09
 -8.6550001E-04    2.4982001E-09
 -8.6500001E-04    7.3091483E-10
 -8.6450001E-04   -6.1753902E-10
 -8.6400000E-04   -1.4473354E-09
 -8.6350000E-04   -1.8105576E-09
 -8.6299999E-04   -2.0587669E-09
 -8.6249999E-04   -2.2147491E-09
 -8.6199999E-04   -2.4304125E-09
 -8.6149998E-04   -2.9683422E-09
 -8.6099998E-04   -4.2983710E-09
 -8.6049997E-04   -6.1796119E-09
 -8.5999997E-04   -9.0200487E-09
 -8.5950003E-04   -1.2528882E-08
 -8.5900002E-04   -1.6732150E-08
 -8.5850002E-04   -2.1343398E-08
 -8.5800001E-04   -2.6128252E-08
 -8.5750001E-04   -3.0817610E-08
 -8.5700001E-04   -3.4829881E-08
 -8.5650000E-04   -3.7687634E-08
 -8.5600000E-04   -4.0033232E-08
 -8.5549999E-04   -4.1368086E-08
 -8.5499999E-04   -4.1463796E-08
 -8.5449999E-04   -4.0092491E-08
 -8.5399998E-04   -3.7340985E-08
 -8.5349998E-04   -3.3400255E-08
 -8.5299998E-04   -2.8174808E-08
 -8.5249997E-04   -2.1647290E-08
 -8.5200003E-04   -1.3956591E-08
 -8.5150002E-04   -5.1287521E-09
 -8.5100002E-04    4.5237258E-09
 -8.5050002E-04    1.4679665E-08
 -8.5000001E-04    2.4879000E-08
 -8.4950001E-04    3.4613919E-08
 -8.4900000E-04    4.3321279E-08
 -8.4850000E-04    5.0218745E-08
 -8.4800000E-04    5.4850592E-08
 -8.4749999E-04    5.6357457E-08
 -8.4699999E-04    5.4669897E-08
 -8.4649998E-04    4.9440697E-08
 -8.4599998E-04    4.0878184E-08
 -8.4549998E-04    2.9034442E-08
 -8.4499997E-04    1.4708085E-08
 -8.4450003E-04   -1.1460323E-09
 -8.4400002E-04   -1.7781385E-08
 -8.4350002E-04   -3.3730970E-08
 -8.4300002E-04   -4.7705729E-08
 -8.4250001E-04   -5.9070636E-08
 -8.4200001E-04   -6.6655168E-08
 -8.4150000E-04   -7.0125147E-08
 -8.4100000E-04   -6.9289598E-08
 -8.4050000E-04   -6.3940185E-08
 -8.3999999E-04   -5.4129004E-08
 -8.3949999E-04   -4.0359520E-08
 -8.3899999E-04   -2.3360901E-08
 -8.3849998E-04   -4.5914712E-09
 -8.3799998E-04    1.4403637E-08
 -8.3749997E-04    3.2339706E-08
 -8.3700003E-04    4.7932026E-08
 -8.3650002E-04    5.9891541E-08
 -8.3600002E-04    6.7168735E-08
 -8.3550002E-04    6.9189873E-08
 -8.3500001E-04    6.5924588E-08
 -8.3450001E-04    5.7676701E-08
 -8.3400001E-04    4.4776073E-08
 -8.3350000E-04    2.8142839E-08
 -8.3300000E-04    9.1832506E-09
 -8.3249999E-04   -1.0783256E-08
 -8.3199999E-04   -2.9603912E-08
 -8.3149999E-04   -4.6237059E-08
 -8.3099998E-04   -5.9432697E-08
 -8.3049998E-04   -6.8140501E-08
 -8.2999998E-04   -7.1574881E-08
 -8.2949997E-04   -6.9319185E-08
 -8.2900003E-04   -6.1403796E-08
 -8.2850002E-04   -4.8314828E-08
 -8.2800002E-04   -3.1041871E-08
 -8.2750001E-04   -1.0921724E-08
 -8.2700001E-04    1.0552553E-08
 -8.2650001E-04    3.1801111E-08
 -8.2600000E-04    5.1087838E-08
 -8.2550000E-04    6.6884972E-08
 -8.2500000E-04    7.8176896E-08
 -8.2449999E-04    8.4382016E-08
 -8.2399999E-04    8.5363624E-08
 -8.2349998E-04    8.1197683E-08
 -8.2299998E-04    7.2083843E-08
 -8.2249998E-04    5.8768645E-08
 -8.2199997E-04    4.2432642E-08
 -8.2150003E-04    2.4603608E-08
 -8.2100002E-04    6.5662684E-09
 -8.2050002E-04   -1.0880771E-08
 -8.2000002E-04   -2.6418071E-08
 -8.1950001E-04   -3.9021327E-08
 -8.1900001E-04   -4.8655821E-08
 -8.1850000E-04   -5.5026426E-08
 -8.1800000E-04   -5.8053931E-08
 -8.1750000E-04   -5.7669990E-08
 -8.1699999E-04   -5.4100290E-08
 -8.1649999E-04   -4.8100052E-08
 -8.1599999E-04   -4.0398440E-08
 -8.1549998E-04   -3.1342680E-08
 -8.1499998E-04   -2.1783462E-08
 -8.1449997E-04   -1.2311067E-08
 -8.1400003E-04   -2.9602167E-09
 -8.1350002E-04    5.6961742E-09
 -8.1300002E-04    1.3293525E-08
 -8.1250002E-04    2.0396074E-08
 -8.1200001E-04    2.7055908E-08
 -8.1150001E-04    3.3812302E-08
 -8.1100001E-04    4.0329983E-08
 -8.1050000E-04    4.6656691E-08
 -8.1000000E-04    5.3209092E-08
 -8.0949999E-04    5.9136497E-08
 -8.0899999E-04    6.4438915E-08
 -8.0849999E-04    6.9116332E-08
 -8.0799998E-04    7.2682653E-08
 -8.0749998E-04    7.4460793E-08
 -8.0699997E-04    7.3791028E-08
 -8.0649997E-04    7.0673352E-08
 -8.0600003E-04    6.4639025E-08
 -8.0550002E-04    5.5679362E-08
 -8.0500002E-04    4.4046097E-08
 -8.0450001E-04    3.0254633E-08
 -8.0400001E-04    1.5404146E-08
 -8.0350001E-04   -6.8765710E-10
 -8.0300000E-04   -1.6736056E-08
 -8.0250000E-04   -3.1551817E-08
 -8.0200000E-04   -4.4180087E-08
 -8.0149999E-04   -5.3527110E-08
 -8.0099999E-04   -5.9749141E-08
 -8.0049998E-04   -6.2724652E-08
 -7.9999998E-04   -6.2557802E-08
 -7.9949998E-04   -5.9630537E-08
 -7.9899997E-04   -5.4394253E-08
 -7.9850003E-04   -4.8064212E-08
 -7.9800002E-04   -4.1786254E-08
 -7.9750002E-04   -3.6463149E-08
 -7.9700002E-04   -3.2732917E-08
 -7.9650001E-04   -3.1502676E-08
 -7.9600001E-04   -3.2963399E-08
 -7.9550000E-04   -3.7041303E-08
 -7.9500000E-04   -4.3766775E-08
 -7.9450000E-04   -5.1108561E-08
 -7.9399999E-04   -5.7599657E-08
 -7.9349999E-04   -6.2684506E-08
 -7.9299998E-04   -6.5234651E-08
 -7.9249998E-04   -6.4833408E-08
 -7.9199998E-04   -6.0369679E-08
 -7.9149997E-04   -5.1357350E-08
 -7.9100003E-04   -3.7466563E-08
 -7.9050002E-04   -1.9756344E-08
 -7.9000002E-04    1.0962280E-09
 -7.8950002E-04    2.4448788E-08
 -7.8900001E-04    4.8178944E-08
 -7.8850001E-04    7.0774107E-08
 -7.8800000E-04    9.0105367E-08
 -7.8750000E-04    1.0545225E-07
 -7.8700000E-04    1.1623316E-07
 -7.8649999E-04    1.2204877E-07
 -7.8599999E-04    1.2345467E-07
 -7.8549999E-04    1.2052027E-07
 -7.8499998E-04    1.1400949E-07
 -7.8449998E-04    1.0440843E-07
 -7.8399997E-04    9.1786539E-08
 -7.8350003E-04    7.6022296E-08
 -7.8300002E-04    5.6456003E-08
 -7.8250002E-04    3.4476539E-08
 -7.8200002E-04    1.0031827E-08
 -7.8150001E-04   -1.5997051E-08
 -7.8100001E-04   -4.2516348E-08
 -7.8050001E-04   -6.8775194E-08
 -7.8000000E-04   -9.4686790E-08
 -7.7950000E-04   -1.1832405E-07
 -7.7899999E-04   -1.3946128E-07
 -7.7849999E-04   -1.5674435E-07
 -7.7799999E-04   -1.6881907E-07
 -7.7749998E-04   -1.7485215E-07
 -7.7699998E-04   -1.7338525E-07
 -7.7649998E-04   -1.6495659E-07
 -7.7599997E-04   -1.5010434E-07
 -7.7550003E-04   -1.2854207E-07
 -7.7500002E-04   -1.0119425E-07
 -7.7450002E-04   -6.9910939E-08
 -7.7400001E-04   -3.4860310E-08
 -7.7350001E-04    2.2562565E-09
 -7.7300001E-04    4.0483908E-08
 -7.7250000E-04    7.8086543E-08
 -7.7200000E-04    1.1454334E-07
 -7.7150000E-04    1.4825709E-07
 -7.7099999E-04    1.7912362E-07
 -7.7049999E-04    2.0648325E-07
 -7.6999998E-04    2.3042277E-07
 -7.6949998E-04    2.4965746E-07
 -7.6899998E-04    2.6279844E-07
 -7.6849997E-04    2.6870424E-07
 -7.6800003E-04    2.6645037E-07
 -7.6750002E-04    2.5652292E-07
 -7.6700002E-04    2.3853991E-07
 -7.6650002E-04    2.1180696E-07
 -7.6600001E-04    1.7713998E-07
 -7.6550001E-04    1.3577163E-07
 -7.6500000E-04    8.9056037E-08
 -7.6450000E-04    3.8868205E-08
 -7.6400000E-04   -1.3229381E-08
 -7.6349999E-04   -6.4302704E-08
 -7.6299999E-04   -1.0971635E-07
 -7.6249999E-04   -1.4728283E-07
 -7.6199998E-04   -1.7417229E-07
 -7.6149998E-04   -1.8861495E-07
 -7.6099997E-04   -1.8963753E-07
 -7.6050003E-04   -1.7803863E-07
 -7.6000002E-04   -1.5472101E-07
 -7.5950002E-04   -1.2208048E-07
 -7.5900002E-04   -8.2356621E-08
 -7.5850001E-04   -3.9577188E-08
 -7.5800001E-04    1.2925647E-09
 -7.5750001E-04    3.7804721E-08
 -7.5700000E-04    6.6782214E-08
 -7.5650000E-04    8.4874358E-08
 -7.5599999E-04    9.0414495E-08
 -7.5549999E-04    8.3966860E-08
 -7.5499999E-04    6.6572021E-08
 -7.5449998E-04    3.9602593E-08
 -7.5399998E-04    5.8016059E-09
 -7.5349997E-04   -3.1054910E-08
 -7.5299997E-04   -6.8154478E-08
 -7.5250003E-04   -1.0205960E-07
 -7.5200002E-04   -1.2990573E-07
 -7.5150002E-04   -1.4974844E-07
 -7.5100001E-04   -1.6099744E-07
 -7.5050001E-04   -1.6238542E-07
 -7.5000001E-04   -1.5557033E-07
 -7.4950000E-04   -1.4218848E-07
 -7.4900000E-04   -1.2517387E-07
 -7.4850000E-04   -1.0812026E-07
 -7.4799999E-04   -9.3861814E-08
 -7.4749999E-04   -8.5384627E-08
 -7.4699998E-04   -8.5310219E-08
 -7.4649998E-04   -9.5817377E-08
 -7.4599998E-04   -1.1739220E-07