 -1.2000001E-03    1.0000000E-24
 -1.1995001E-03    1.0000000E-24
 -1.1990000E-03    1.0000000E-24
 -1.1985000E-03    1.0000000E-24
 -1.1980000E-03    1.0000000E-24
 -1.1975000E-03    1.0000000E-24
 -1.1970000E-03    1.0000000E-24
 -1.1965000E-03    1.0000000E-24
 -1.1960000E-03    1.0000001E-24
 -1.1955000E-03    1.0000003E-24
 -1.1950000E-03    1.0000004E-24
 -1.1945000E-03    1.0000005E-24
 -1.1940000E-03    1.0002411E-24
 -1.1935000E-03    9.9926953E-25
 -1.1930000E-03    9.9831304E-25
 -1.1925000E-03    9.8783963E-25
 -1.1920000E-03    9.4724938E-25
 -1.1915000E-03    8.6425481E-25
 -1.1910000E-03    6.5404709E-25
 -1.1905000E-03    1.8170298E-25
 -1.1900000E-03   -8.4575326E-25
 -1.1895000E-03   -2.4900010E-24
 -1.1890000E-03   -4.5043236E-24
 -1.1885000E-03   -8.4923787E-24
 -1.1880000E-03   -1.6181180E-23
 -1.1875000E-03   -3.1764911E-23
 -1.1870000E-03   -4.6361775E-23
 -1.1865000E-03   -2.5431459E-23
 -1.1860000E-03    1.6918729E-22
 -1.1854999E-03    4.7828250E-22
 -1.1849999E-03    9.6501362E-22
 -1.1845001E-03    1.4912192E-21
 -1.1840001E-03    1.9858452E-21
 -1.1835000E-03    2.9225870E-21
 -1.1830000E-03    4.2244700E-21
 -1.1825000E-03    6.6790117E-21
 -1.1820000E-03    8.8809156E-21
 -1.1815000E-03    1.0830182E-20
 -1.1810000E-03    1.1768897E-20
 -1.1805000E-03    1.5991904E-20
 -1.1800000E-03    2.0720183E-20
 -1.1795000E-03    2.3427362E-20
 -1.1790000E-03    4.2303357E-20
 -1.1785000E-03    7.8358716E-20
 -1.1780000E-03    1.7807878E-19
 -1.1775000E-03    4.1119156E-19
 -1.1770000E-03    6.2510385E-19
 -1.1765000E-03    1.0209154E-18
 -1.1760000E-03    1.2888922E-18
 -1.1755000E-03    1.4679404E-18
 -1.1750000E-03    1.5135960E-18
 -1.1745000E-03    1.3328880E-18
 -1.1740000E-03    1.0309142E-18
 -1.1735000E-03    7.1277135E-19
 -1.1730000E-03    6.5770904E-21
 -1.1725000E-03   -8.6130517E-19
 -1.1720000E-03   -1.7938628E-18
 -1.1715000E-03   -2.9527839E-18
 -1.1710000E-03   -3.4326149E-18
 -1.1704999E-03   -4.0741338E-18
 -1.1699999E-03   -3.6161735E-18
 -1.1695001E-03   -3.9666541E-18
 -1.1690001E-03   -5.9986911E-18
 -1.1685000E-03   -8.9361819E-18
 -1.1680000E-03   -1.2132374E-17
 -1.1675000E-03   -1.5716615E-17
 -1.1670000E-03   -1.9042156E-17
 -1.1665000E-03   -2.5472107E-17
 -1.1660000E-03   -2.5693237E-17
 -1.1655000E-03   -2.5396963E-17
 -1.1650000E-03   -2.6539128E-19
 -1.1645000E-03    7.2745075E-18
 -1.1640000E-03   -6.9164773E-18
 -1.1635000E-03   -2.0848763E-17
 -1.1630000E-03   -5.2696097E-17
 -1.1625000E-03   -7.6782398E-17
 -1.1620000E-03   -1.0759492E-16
 -1.1615000E-03   -1.5082511E-16
 -1.1610000E-03   -1.5473272E-16
 -1.1605000E-03   -1.9382369E-16
 -1.1600000E-03   -2.7637640E-16
 -1.1595000E-03   -4.2515659E-16
 -1.1590000E-03   -5.9463285E-16
 -1.1585000E-03   -6.3579341E-16
 -1.1580000E-03   -5.8175202E-16
 -1.1575000E-03   -5.6082433E-16
 -1.1570000E-03   -4.2037676E-16
 -1.1565000E-03   -3.5857433E-16
 -1.1560000E-03   -3.7541702E-16
 -1.1555000E-03   -6.0335967E-16
 -1.1549999E-03   -8.1474548E-16
 -1.1544999E-03   -1.0012961E-15
 -1.1540001E-03   -1.1712897E-15
 -1.1535001E-03   -9.6047543E-16
 -1.1530000E-03   -6.3376302E-16
 -1.1525000E-03   -1.7459569E-16
 -1.1520000E-03    6.9332472E-17
 -1.1515000E-03    3.2981745E-16
 -1.1510000E-03   -2.1710352E-16
 -1.1505000E-03   -6.4812648E-16
 -1.1500000E-03   -1.0460359E-15
 -1.1495000E-03   -1.6095139E-15
 -1.1490000E-03   -4.0935878E-15
 -1.1485000E-03   -7.6373014E-15
 -1.1480000E-03   -1.1114788E-14
 -1.1475000E-03   -1.5718141E-14
 -1.1470000E-03   -2.0983767E-14
 -1.1465000E-03   -2.7110352E-14
 -1.1460000E-03   -3.3137596E-14
 -1.1455000E-03   -3.8047250E-14
 -1.1450000E-03   -4.0721726E-14
 -1.1445000E-03   -3.9621237E-14
 -1.1440000E-03   -3.6798835E-14
 -1.1435000E-03   -3.2254517E-14
 -1.1430000E-03   -2.6783014E-14
 -1.1425000E-03   -2.0119419E-14
 -1.1420000E-03   -8.8199034E-15
 -1.1415000E-03    7.1155342E-15
 -1.1410000E-03    2.7554437E-14
 -1.1405000E-03    4.8390708E-14
 -1.1399999E-03    7.0750202E-14
 -1.1394999E-03    9.3573295E-14
 -1.1390001E-03    1.0791927E-13
 -1.1385001E-03    1.1325831E-13
 -1.1380001E-03    1.0773604E-13
 -1.1375000E-03    9.4266480E-14
 -1.1370000E-03    7.1789986E-14
 -1.1365000E-03    4.1896015E-14
 -1.1360000E-03   -1.7732638E-15
 -1.1355000E-03   -4.9681095E-14
 -1.1350000E-03   -8.7787254E-14
 -1.1345000E-03   -1.2946970E-13
 -1.1340000E-03   -1.6552280E-13
 -1.1335000E-03   -1.8250240E-13
 -1.1330000E-03   -1.7246118E-13
 -1.1325000E-03   -1.3804825E-13
 -1.1320000E-03   -8.8800380E-14
 -1.1315000E-03   -2.2598283E-14
 -1.1310000E-03    4.7842366E-14
 -1.1305000E-03    1.3735650E-13
 -1.1300000E-03    2.5442127E-13
 -1.1295000E-03    3.4181609E-13
 -1.1290000E-03    3.7728859E-13
 -1.1285000E-03    3.6348786E-13
 -1.1280000E-03    3.1789792E-13
 -1.1275000E-03    2.4899592E-13
 -1.1270000E-03    1.7161680E-13
 -1.1265000E-03    8.9999141E-14
 -1.1260000E-03   -9.5646166E-17
 -1.1255000E-03   -8.5951855E-14
 -1.1250000E-03   -1.3366103E-13
 -1.1244999E-03   -1.8137016E-13
 -1.1239999E-03   -1.8245513E-13
 -1.1235001E-03   -1.7294365E-13
 -1.1230001E-03   -1.4117972E-13
 -1.1225000E-03   -3.9280875E-14
 -1.1220000E-03    1.6646267E-13
 -1.1215000E-03    4.4850023E-13
 -1.1210000E-03    8.9584156E-13
 -1.1205000E-03    1.5212022E-12
 -1.1200000E-03    2.2652425E-12
 -1.1195000E-03    3.1533936E-12
 -1.1190000E-03    3.9652509E-12
 -1.1185000E-03    4.6753820E-12
 -1.1180000E-03    5.2498795E-12
 -1.1175000E-03    5.6421187E-12
 -1.1170000E-03    5.8245492E-12
 -1.1165000E-03    5.6117342E-12
 -1.1160000E-03    5.1403673E-12
 -1.1155000E-03    4.3892559E-12
 -1.1150000E-03    3.3668767E-12
 -1.1145000E-03    2.1919094E-12
 -1.1140000E-03    8.4740011E-13
 -1.1135000E-03   -6.1578845E-13
 -1.1130000E-03   -2.4180616E-12
 -1.1125000E-03   -4.0338384E-12
 -1.1120000E-03   -5.6750459E-12
 -1.1115000E-03   -7.3035371E-12
 -1.1110000E-03   -8.6512247E-12
 -1.1105000E-03   -9.2274946E-12
 -1.1100000E-03   -9.2273212E-12
 -1.1094999E-03   -8.4642068E-12
 -1.1089999E-03   -7.1924662E-12
 -1.1084999E-03   -5.3103737E-12
 -1.1080001E-03   -3.3943727E-12
 -1.1075001E-03   -1.3088297E-12
 -1.1070000E-03    3.5285799E-13
 -1.1065000E-03    1.8110950E-12
 -1.1060000E-03    2.8709075E-12
 -1.1055000E-03    2.8482989E-12
 -1.1050000E-03    2.1899067E-12
 -1.1045000E-03    1.3619720E-12
 -1.1040000E-03    7.7139673E-13
 -1.1035000E-03    2.4863824E-13
 -1.1030000E-03    6.4964188E-14
 -1.1025000E-03   -3.2216081E-13
 -1.1020000E-03   -4.7192686E-13
 -1.1015000E-03   -7.9123584E-13
 -1.1010000E-03   -1.0088199E-12
 -1.1005000E-03   -1.6163517E-12
 -1.1000000E-03   -2.3722335E-12
 -1.0995000E-03   -2.7720766E-12
 -1.0990000E-03   -3.4431874E-12
 -1.0985000E-03   -4.7585586E-12
 -1.0980000E-03   -7.1250917E-12
 -1.0975000E-03   -1.0237610E-11
 -1.0970000E-03   -1.2536325E-11
 -1.0965000E-03   -1.4224687E-11
 -1.0960000E-03   -1.4895793E-11
 -1.0955000E-03   -1.4549646E-11
 -1.0950000E-03   -1.3440558E-11
 -1.0945000E-03   -1.1554754E-11
 -1.0939999E-03   -9.3637728E-12
 -1.0934999E-03   -5.7486359E-12
 -1.0930001E-03   -1.5231470E-12
 -1.0925001E-03    3.5161453E-12
 -1.0920000E-03    9.0979715E-12
 -1.0915000E-03    1.4137263E-11
 -1.0910000E-03    1.8566199E-11
 -1.0905000E-03    2.1197988E-11
 -1.0900000E-03    2.3372009E-11
 -1.0895000E-03    2.3320786E-11
 -1.0890000E-03    2.0200848E-11
 -1.0885000E-03    1.3011894E-11
 -1.0880000E-03    2.2964601E-12
 -1.0875000E-03   -1.0385662E-11
 -1.0870000E-03   -2.4763207E-11
 -1.0865000E-03   -4.0700540E-11
 -1.0860000E-03   -5.7180406E-11
 -1.0855000E-03   -7.3524631E-11
 -1.0850000E-03   -8.7054461E-11
 -1.0845000E-03   -9.5752330E-11
 -1.0840000E-03   -9.9058747E-11
 -1.0835000E-03   -1.0168700E-10
 -1.0830000E-03   -9.8482993E-11
 -1.0825000E-03   -8.5920250E-11
 -1.0820000E-03   -6.8339064E-11
 -1.0815000E-03   -4.5603788E-11
 -1.0810000E-03   -1.8663860E-11
 -1.0805000E-03    9.7002172E-12
 -1.0800000E-03    3.6674046E-11
 -1.0795000E-03    6.0172242E-11
 -1.0790000E-03    7.8787622E-11
 -1.0784999E-03    9.3333993E-11
 -1.0779999E-03    9.8385987E-11
 -1.0775001E-03    9.4486148E-11
 -1.0770001E-03    8.1091932E-11
 -1.0765000E-03    5.8474621E-11
 -1.0760000E-03    2.7176740E-11
 -1.0755000E-03   -1.2530434E-11
 -1.0750000E-03   -5.7798589E-11
 -1.0745000E-03   -1.0069315E-10
 -1.0740000E-03   -1.4189228E-10
 -1.0735000E-03   -1.7712351E-10
 -1.0730000E-03   -2.0367419E-10
 -1.0725000E-03   -2.1856035E-10
 -1.0720000E-03   -2.2530849E-10
 -1.0715000E-03   -2.2066340E-10
 -1.0710000E-03   -2.0571013E-10
 -1.0705000E-03   -1.8044870E-10
 -1.0700000E-03   -1.4325147E-10
 -1.0695000E-03   -9.5746071E-11
 -1.0690000E-03   -3.2371512E-11
 -1.0685000E-03    3.9141086E-11
 -1.0680000E-03    1.2177566E-10
 -1.0675000E-03    2.1200573E-10
 -1.0670000E-03    2.9789554E-10
 -1.0665000E-03    3.8324280E-10
 -1.0660000E-03    4.5231402E-10
 -1.0655000E-03    4.9968379E-10
 -1.0650000E-03    5.2155441E-10
 -1.0645000E-03    4.9947968E-10
 -1.0640000E-03    4.4159756E-10
 -1.0634999E-03    3.7123712E-10
 -1.0629999E-03    2.6849781E-10
 -1.0625001E-03    1.5409396E-10
 -1.0620001E-03    3.9690109E-11
 -1.0615001E-03   -7.8511496E-11
 -1.0610000E-03   -1.8369224E-10
 -1.0605000E-03   -2.7259695E-10
 -1.0600000E-03   -3.5607628E-10
 -1.0595000E-03   -4.0917361E-10
 -1.0590000E-03   -4.4599485E-10
 -1.0585000E-03   -4.6057214E-10
 -1.0580000E-03   -4.6538373E-10
 -1.0575000E-03   -4.3316725E-10
 -1.0570000E-03   -3.8006315E-10
 -1.0565000E-03   -3.0362998E-10
 -1.0560000E-03   -1.9030438E-10
 -1.0555000E-03   -4.6596789E-11
 -1.0550000E-03    9.9280945E-11
 -1.0545000E-03    2.5600938E-10
 -1.0540000E-03    4.5614057E-10
 -1.0535000E-03    6.4108069E-10
 -1.0530000E-03    8.3470131E-10
 -1.0525000E-03    9.9793984E-10
 -1.0520000E-03    1.1183181E-09
 -1.0515000E-03    1.2047877E-09
 -1.0510000E-03    1.1740697E-09
 -1.0505000E-03    1.0402700E-09
 -1.0500000E-03    8.3377039E-10
 -1.0495000E-03    5.6433674E-10
 -1.0490000E-03    2.2762879E-10
 -1.0485000E-03   -1.3512079E-10
 -1.0479999E-03   -5.0438065E-10
 -1.0474999E-03   -8.2264212E-10
 -1.0470001E-03   -1.1061811E-09
 -1.0465001E-03   -1.2996593E-09
 -1.0460000E-03   -1.3937175E-09
 -1.0455000E-03   -1.3521420E-09
 -1.0450000E-03   -1.1695072E-09
 -1.0445000E-03   -8.7185487E-10
 -1.0440000E-03   -5.0475807E-10
 -1.0435000E-03   -1.0727935E-10
 -1.0430000E-03    2.5981733E-10
 -1.0425000E-03    6.2908406E-10
 -1.0420000E-03    9.1371510E-10
 -1.0415000E-03    1.1180509E-09
 -1.0410000E-03    1.2290705E-09
 -1.0405000E-03    1.2323966E-09
 -1.0400000E-03    1.1348110E-09
 -1.0395000E-03    9.1678259E-10
 -1.0390000E-03    6.3690508E-10
 -1.0385000E-03    3.1796504E-10
 -1.0380000E-03   -2.9186823E-11
 -1.0375000E-03   -3.3944622E-10
 -1.0370000E-03   -6.2366384E-10
 -1.0365000E-03   -8.5579793E-10
 -1.0360000E-03   -1.0293381E-09
 -1.0355000E-03   -1.1442843E-09
 -1.0350000E-03   -1.1832754E-09
 -1.0345000E-03   -1.1471930E-09
 -1.0340000E-03   -1.0324429E-09
 -1.0335000E-03   -8.7754515E-10
 -1.0329999E-03   -6.8575501E-10
 -1.0324999E-03   -4.7443355E-10
 -1.0319999E-03   -1.9800790E-10
 -1.0315001E-03    1.3267122E-10
 -1.0310001E-03    4.8071136E-10
 -1.0305000E-03    8.1898582E-10
 -1.0300000E-03    1.1203677E-09
 -1.0295000E-03    1.4184942E-09
 -1.0290000E-03    1.6889512E-09
 -1.0285000E-03    1.9409621E-09
 -1.0280000E-03    2.1680160E-09
 -1.0275000E-03    2.3516673E-09
 -1.0270000E-03    2.5071063E-09
 -1.0265000E-03    2.5952711E-09
 -1.0260000E-03    2.5749289E-09
 -1.0255000E-03    2.4330586E-09
 -1.0250000E-03    2.1544699E-09
 -1.0245000E-03    1.7912456E-09
 -1.0240000E-03    1.2831646E-09
 -1.0235000E-03    6.3076944E-10
 -1.0230000E-03   -9.2155131E-11
 -1.0225000E-03   -9.1924629E-10
 -1.0220000E-03   -1.7853998E-09
 -1.0215000E-03   -2.6819351E-09
 -1.0210000E-03   -3.5068557E-09
 -1.0205000E-03   -4.1928874E-09
 -1.0200000E-03   -4.6836059E-09
 -1.0195000E-03   -4.9659907E-09
 -1.0190000E-03   -5.0248512E-09
 -1.0185000E-03   -4.8601874E-09
 -1.0180000E-03   -4.3689177E-09
 -1.0174999E-03   -3.6476129E-09
 -1.0169999E-03   -2.6485301E-09
 -1.0165001E-03   -1.3282666E-09
 -1.0160001E-03    1.0050380E-10
 -1.0155000E-03    1.5639963E-09
 -1.0150000E-03    3.0231482E-09
 -1.0145000E-03    4.3564317E-09
 -1.0140000E-03    5.4596803E-09
 -1.0135000E-03    6.2525980E-09
 -1.0130000E-03    6.6538055E-09
 -1.0125000E-03    6.6527228E-09
 -1.0120000E-03    6.0830634E-09
 -1.0115000E-03    5.0663549E-09
 -1.0110000E-03    3.5635346E-09
 -1.0105000E-03    1.8046382E-09
 -1.0100000E-03   -2.9714012E-10
 -1.0095000E-03   -2.5247866E-09
 -1.0090000E-03   -4.6092032E-09
 -1.0085000E-03   -6.4939667E-09
 -1.0080000E-03   -8.0401881E-09
 -1.0075000E-03   -9.0872767E-09
 -1.0070000E-03   -9.5527675E-09
 -1.0065000E-03   -9.3057730E-09
 -1.0060000E-03   -8.3100806E-09
 -1.0055000E-03   -6.6156023E-09
 -1.0050000E-03   -4.4740744E-09
 -1.0045000E-03   -1.9028592E-09
 -1.0040000E-03    8.8537039E-10
 -1.0035000E-03    3.7256829E-09
 -1.0030000E-03    6.3663421E-09
 -1.0025000E-03    8.6858201E-09
 -1.0019999E-03    1.0467101E-08
 -1.0014999E-03    1.1584319E-08
 -1.0010001E-03    1.1898585E-08
 -1.0005001E-03    1.1345335E-08
 -1.0000000E-03    9.9696029E-09
 -9.9950004E-04    7.8516802E-09
 -9.9900004E-04    5.0479931E-09
 -9.9850004E-04    1.9231254E-09
 -9.9800003E-04   -1.4708398E-09
 -9.9750003E-04   -4.9689710E-09
 -9.9700002E-04   -8.2500877E-09
 -9.9650002E-04   -1.1201342E-08
 -9.9600002E-04   -1.3605720E-08
 -9.9550001E-04   -1.5250547E-08
 -9.9500001E-04   -1.6084826E-08
 -9.9450001E-04   -1.5925181E-08
 -9.9400000E-04   -1.4771609E-08
 -9.9350000E-04   -1.2611091E-08
 -9.9299999E-04   -9.6172377E-09
 -9.9249999E-04   -6.0157448E-09
 -9.9199999E-04   -1.9802244E-09
 -9.9149998E-04    2.3330737E-09
 -9.9099998E-04    6.6463715E-09
 -9.9049998E-04    1.0907585E-08
 -9.8999997E-04    1.4595879E-08
 -9.8949997E-04    1.7641810E-08
 -9.8899996E-04    1.9704666E-08
 -9.8849996E-04    2.0667260E-08
 -9.8799996E-04    2.0466656E-08
 -9.8749995E-04    1.8894523E-08
 -9.8699995E-04    1.6107110E-08
 -9.8649994E-04    1.2269349E-08
 -9.8600006E-04    7.5982536E-09
 -9.8550005E-04    2.0764634E-09
 -9.8500005E-04   -3.5842145E-09
 -9.8450005E-04   -8.8369045E-09
 -9.8400004E-04   -1.3455911E-08
 -9.8350004E-04   -1.7137413E-08
 -9.8300003E-04   -1.9369262E-08
 -9.8250003E-04   -2.0177493E-08
 -9.8200003E-04   -1.9527391E-08
 -9.8150002E-04   -1.7436314E-08
 -9.8100002E-04   -1.4173358E-08
 -9.8050002E-04   -1.0059710E-08
 -9.8000001E-04   -5.2429345E-09
 -9.7950001E-04   -2.0046635E-10
 -9.7900000E-04    4.5642223E-09
 -9.7850000E-04    8.7125880E-09
 -9.7800000E-04    1.2392202E-08
 -9.7749999E-04    1.5351326E-08
 -9.7699999E-04    1.7325204E-08
 -9.7649998E-04    1.8426682E-08
 -9.7599998E-04    1.8336211E-08
 -9.7549998E-04    1.6947991E-08
 -9.7499997E-04    1.4500744E-08
 -9.7450003E-04    1.0959744E-08
 -9.7400002E-04    6.9586754E-09
 -9.7350002E-04    2.7319127E-09
 -9.7300002E-04   -1.0868613E-09
 -9.7250001E-04   -4.6538964E-09
 -9.7200001E-04   -7.5438455E-09
 -9.7150001E-04   -9.4876098E-09
 -9.7100000E-04   -9.9817177E-09
 -9.7050000E-04   -9.3907513E-09
 -9.6999999E-04   -7.8015168E-09
 -9.6949999E-04   -5.2020801E-09
 -9.6899999E-04   -1.4972262E-09
 -9.6849998E-04    3.3968668E-09
 -9.6799998E-04    9.2176098E-09
 -9.6749997E-04    1.5611270E-08
 -9.6700003E-04    2.2571337E-08
 -9.6650003E-04    2.9340429E-08
 -9.6600002E-04    3.5148144E-08
 -9.6550002E-04    3.9677641E-08
 -9.6500001E-04    4.2933262E-08
 -9.6450001E-04    4.4708845E-08
 -9.6400001E-04    4.4778687E-08
 -9.6350000E-04    4.2404952E-08
 -9.6300000E-04    3.7544229E-08
 -9.6249999E-04    3.0222566E-08
 -9.6199999E-04    2.1017220E-08
 -9.6149999E-04    1.0162568E-08
 -9.6099998E-04   -1.9420845E-09
 -9.6049998E-04   -1.4558888E-08
 -9.5999998E-04   -2.7184369E-08
 -9.5949997E-04   -3.9315054E-08
 -9.5900003E-04   -5.0017785E-08
 -9.5850002E-04   -5.8107656E-08
 -9.5800002E-04   -6.3604205E-08
 -9.5750001E-04   -6.5589454E-08
 -9.5700001E-04   -6.4271752E-08
 -9.5650001E-04   -5.9993972E-08
 -9.5600000E-04   -5.3433208E-08
 -9.5550000E-04   -4.4806463E-08
 -9.5500000E-04   -3.4651940E-08
 -9.5449999E-04   -2.3820339E-08
 -9.5399999E-04   -1.2849853E-08
 -9.5349998E-04   -2.4870115E-09
 -9.5299998E-04    7.1466570E-09
 -9.5249998E-04    1.5304623E-08
 -9.5199997E-04    2.1353209E-08
 -9.5150003E-04    2.5092762E-08
 -9.5100002E-04    2.7111387E-08
 -9.5050002E-04    2.7741121E-08
 -9.5000002E-04    2.6617380E-08
 -9.4950001E-04    2.4278361E-08
 -9.4900001E-04    2.0064341E-08
 -9.4850000E-04    1.5103796E-08
 -9.4800000E-04    1.0056450E-08
 -9.4750000E-04    5.2868865E-09
 -9.4699999E-04    9.6871644E-10
 -9.4649999E-04   -2.5681988E-09
 -9.4599999E-04   -5.2023323E-09
 -9.4549998E-04   -6.6385457E-09
 -9.4499998E-04   -6.4514922E-09
 -9.4449997E-04   -4.7323194E-09
 -9.4400003E-04   -1.2553324E-09
 -9.4350002E-04    3.7928349E-09
 -9.4300002E-04    9.7958628E-09
 -9.4250002E-04    1.6857916E-08
 -9.4200001E-04    2.4371356E-08
 -9.4150001E-04    3.2266737E-08
 -9.4100001E-04    3.9502392E-08
 -9.4050000E-04    4.5522768E-08
 -9.4000000E-04    4.9911190E-08
 -9.3949999E-04    5.2129472E-08
 -9.3899999E-04    5.1639418E-08
 -9.3849999E-04    4.8458386E-08
 -9.3799998E-04    4.2596145E-08
 -9.3749998E-04    3.4060296E-08
 -9.3699998E-04    2.3406390E-08
 -9.3649997E-04    1.0999012E-08
 -9.3600003E-04   -2.7278075E-09
 -9.3550002E-04   -1.6524069E-08
 -9.3500002E-04   -2.9278661E-08
 -9.3450001E-04   -3.9498524E-08
 -9.3400001E-04   -4.6037822E-08
 -9.3350001E-04   -4.8410453E-08
 -9.3300000E-04   -4.5991410E-08
 -9.3250000E-04   -3.8772015E-08
 -9.3200000E-04   -2.6918586E-08
 -9.3149999E-04   -1.1575573E-08
 -9.3099999E-04    5.7466094E-09
 -9.3049998E-04    2.3086148E-08
 -9.2999998E-04    3.9279850E-08
 -9.2949998E-04    5.2626326E-08
 -9.2899997E-04    6.2083906E-08
 -9.2850003E-04    6.6367868E-08
 -9.2800002E-04    6.4679590E-08
 -9.2750002E-04    5.6914921E-08
 -9.2700002E-04    4.3716213E-08
 -9.2650001E-04    2.5708466E-08
 -9.2600001E-04    3.6604610E-09
 -9.2550000E-04   -2.0948312E-08
 -9.2500000E-04   -4.6060556E-08
 -9.2450000E-04   -7.0165846E-08
 -9.2399999E-04   -9.1319748E-08
 -9.2349999E-04   -1.0802919E-07
 -9.2299999E-04   -1.1939140E-07
 -9.2249998E-04   -1.2342721E-07
 -9.2199998E-04   -1.2024078E-07
 -9.2149997E-04   -1.0979740E-07
 -9.2100003E-04   -9.2808861E-08
 -9.2050002E-04   -6.9370657E-08
 -9.2000002E-04   -4.1796159E-08
 -9.1950002E-04   -1.1508985E-08
 -9.1900001E-04    1.9767771E-08
 -9.1850001E-04    4.9985495E-08
 -9.1800001E-04    7.7251826E-08
 -9.1750000E-04    1.0014314E-07
 -9.1700000E-04    1.1740944E-07
 -9.1649999E-04    1.2821738E-07
 -9.1599999E-04    1.3237602E-07
 -9.1549999E-04    1.3018045E-07
 -9.1499998E-04    1.2209948E-07
 -9.1449998E-04    1.0912265E-07
 -9.1399997E-04    9.2743029E-08
 -9.1349997E-04    7.4126000E-08
 -9.1300003E-04    5.3660013E-08
 -9.1250002E-04    3.2369371E-08
 -9.1200002E-04    1.1165545E-08
 -9.1150001E-04   -8.8750802E-09
 -9.1100001E-04   -2.7214309E-08
 -9.1050001E-04   -4.3504915E-08
 -9.1000000E-04   -5.7772940E-08
 -9.0950000E-04   -7.0244084E-08
 -9.0899999E-04   -8.1326327E-08
 -9.0849999E-04   -9.1284434E-08
 -9.0799999E-04   -9.9489611E-08
 -9.0749998E-04   -1.0613662E-07
 -9.0699998E-04   -1.1082399E-07
 -9.0649998E-04   -1.1350181E-07
 -9.0599997E-04   -1.1410064E-07
 -9.0550003E-04   -1.1136396E-07
 -9.0500002E-04   -1.0484961E-07
 -9.0450002E-04   -9.3380834E-08
 -9.0400001E-04   -7.6243651E-08
 -9.0350001E-04   -5.3212364E-08
 -9.0300001E-04   -2.5007463E-08
 -9.0250000E-04    7.3554269E-09
 -9.0200000E-04    4.2279087E-08
 -9.0150000E-04    7.8365936E-08
 -9.0099999E-04    1.1298577E-07
 -9.0049999E-04    1.4383824E-07
 -8.9999998E-04    1.6792202E-07
 -8.9949998E-04    1.8294331E-07
 -8.9899998E-04    1.8695762E-07
 -8.9849997E-04    1.7859345E-07
 -8.9800003E-04    1.5838897E-07
 -8.9750002E-04    1.2731644E-07
 -8.9700002E-04    8.7111935E-08
 -8.9650002E-04    4.0344933E-08
 -8.9600001E-04   -8.9567997E-09
 -8.9550001E-04   -5.7598808E-08
 -8.9500000E-04   -1.0295956E-07
 -8.9450000E-04   -1.4163626E-07
 -8.9400000E-04   -1.7017405E-07
 -8.9349999E-04   -1.8723179E-07
 -8.9299999E-04   -1.9168317E-07
 -8.9249999E-04   -1.8205466E-07
 -8.9199998E-04   -1.5931849E-07
 -8.9149998E-04   -1.2432535E-07
 -8.9099997E-04   -8.0686362E-08
 -8.9050003E-04   -3.2915430E-08
 -8.9000002E-04    1.5168000E-08
 -8.8950002E-04    6.0022259E-08
 -8.8900002E-04    9.8418163E-08
 -8.8850001E-04    1.2875849E-07
 -8.8800001E-04    1.4854324E-07
 -8.8750001E-04    1.5711268E-07
 -8.8700000E-04    1.5517863E-07
 -8.8650000E-04    1.4458135E-07
 -8.8599999E-04    1.2685949E-07
 -8.8549999E-04    1.0392927E-07
 -8.8499999E-04    7.8690022E-08
 -8.8449998E-04    5.3034110E-08
 -8.8399998E-04    2.8697650E-08
 -8.8349998E-04    7.6250970E-09
 -8.8299997E-04   -8.8641032E-09
 -8.8250003E-04   -2.0075497E-08
 -8.8200002E-04   -2.6356311E-08
 -8.8150002E-04   -2.8088486E-08
 -8.8100001E-04   -2.6174806E-08
 -8.8050001E-04   -2.2247219E-08
 -8.8000001E-04   -1.6826563E-08
 -8.7950000E-04   -1.1484026E-08
 -8.7900000E-04   -7.9947906E-09
 -8.7850000E-04   -7.0923676E-09
 -8.7799999E-04   -9.0719041E-09
 -8.7749999E-04   -1.3690350E-08
 -8.7699998E-04   -2.1537987E-08
 -8.7649998E-04   -3.1503703E-08
 -8.7599998E-04   -4.3899998E-08
 -8.7549997E-04   -5.7199099E-08
 -8.7500003E-04   -6.9595430E-08
 -8.7450002E-04   -8.0047343E-08
 -8.7400002E-04   -8.6402025E-08
 -8.7350002E-04   -8.7947676E-08
 -8.7300001E-04   -8.4397833E-08
 -8.7250001E-04   -7.5410419E-08
 -8.7200000E-04   -6.0060131E-08
 -8.7150000E-04   -3.8841758E-08
 -8.7100000E-04   -1.3526129E-08
 -8.7049999E-04    1.3647165E-08
 -8.6999999E-04    4.1115623E-08
 -8.6949999E-04    6.8427852E-08
 -8.6899998E-04    9.3743573E-08
 -8.6849998E-04    1.1538742E-07
 -8.6799997E-04    1.3052518E-07
 -8.6750003E-04    1.3880313E-07
 -8.6700002E-04    1.3778038E-07
 -8.6650002E-04    1.2861850E-07
 -8.6600002E-04    1.1185838E-07
 -8.6550001E-04    8.8297007E-08
 -8.6500001E-04    5.9722581E-08
 -8.6450001E-04    2.7693261E-08
 -8.6400000E-04   -4.9090048E-09
 -8.6350000E-04   -3.5618932E-08
 -8.6299999E-04   -6.1537200E-08
 -8.6249999E-04   -7.9747139E-08
 -8.6199999E-04   -9.0352906E-08
 -8.6149998E-04   -9.2208651E-08
 -8.6099998E-04   -8.6390770E-08
 -8.6049997E-04   -7.5451325E-08
 -8.5999997E-04   -5.9494500E-08
 -8.5950003E-04   -4.1408732E-08
 -8.5900002E-04   -2.2671891E-08
 -8.5850002E-04   -4.1607127E-09
 -8.5800001E-04    1.2336605E-08
 -8.5750001E-04    2.7202001E-08
 -8.5700001E-04    4.0886864E-08
 -8.5650000E-04    5.3807849E-08
 -8.5600000E-04    6.5478844E-08
 -8.5549999E-04    7.6038724E-08
 -8.5499999E-04    8.5556941E-08
 -8.5449999E-04    9.4033481E-08
 -8.5399998E-04    1.0223222E-07
 -8.5349998E-04    1.0994484E-07
 -8.5299998E-04    1.1691524E-07
 -8.5249997E-04    1.2254880E-07
 -8.5200003E-04    1.2582123E-07
 -8.5150002E-04    1.2610751E-07
 -8.5100002E-04    1.1924098E-07
 -8.5050002E-04    1.0758276E-07
 -8.5000001E-04    9.0230060E-08
 -8.4950001E-04    6.5238446E-08
 -8.4900000E-04    3.1635707E-08
 -8.4850000E-04   -9.3281569E-09
 -8.4800000E-04   -5.3208691E-08
 -8.4749999E-04   -9.6637820E-08
 -8.4699999E-04   -1.3721971E-07
 -8.4649998E-04   -1.7200297E-07
 -8.4599998E-04   -1.9735042E-07
 -8.4549998E-04   -2.1113533E-07
 -8.4499997E-04   -2.1033686E-07
 -8.4450003E-04   -1.9328834E-07
 -8.4400002E-04   -1.5957312E-07
 -8.4350002E-04   -1.1037173E-07
 -8.4300002E-04   -4.6239766E-08
 -8.4250001E-04    3.0947781E-08
 -8.4200001E-04    1.1685061E-07
 -8.4150000E-04    2.0619095E-07
 -8.4100000E-04    2.8981947E-07
 -8.4050000E-04    3.6040973E-07
 -8.3999999E-04    4.1050947E-07
 -8.3949999E-04    4.3276194E-07
 -8.3899999E-04    4.2305251E-07
 -8.3849998E-04    3.8277011E-07
 -8.3799998E-04    3.1014389E-07
 -8.3749997E-04    2.0904541E-07
 -8.3700003E-04    8.4492008E-08
 -8.3650002E-04   -5.3342642E-08
 -8.3600002E-04   -1.9117728E-07
 -8.3550002E-04   -3.2014037E-07
 -8.3500001E-04   -4.2778396E-07
 -8.3450001E-04   -5.0545782E-07
 -8.3400001E-04   -5.4437351E-07
 -8.3350000E-04   -5.4126650E-07
 -8.3300000E-04   -4.9213509E-07
 -8.3249999E-04   -3.9891506E-07
 -8.3199999E-04   -2.6602476E-07
 -8.3149999E-04   -1.0276983E-07
 -8.3099998E-04    7.9130956E-08
 -8.3049998E-04    2.6387897E-07
 -8.2999998E-04    4.3791511E-07
 -8.2949997E-04    5.8602234E-07
 -8.2900003E-04    6.9722842E-07
 -8.2850002E-04    7.6134239E-07
 -8.2800002E-04    7.7294760E-07
 -8.2750001E-04    7.2962206E-07
 -8.2700001E-04    6.3681733E-07
 -8.2650001E-04    4.9948119E-07
 -8.2600000E-04    3.2686719E-07
 -8.2550000E-04    1.3560734E-07
 -8.2500000E-04   -6.2770582E-08
 -8.2449999E-04   -2.5725959E-07
 -8.2399999E-04   -4.3612354E-07
 -8.2349998E-04   -5.8778255E-07
 -8.2299998E-04   -7.0414626E-07
 -8.2249998E-04   -7.7941610E-07
 -8.2199997E-04   -8.0783258E-07
 -8.2150003E-04   -7.8846682E-07
 -8.2100002E-04   -7.2587176E-07
 -8.2050002E-04   -6.2438778E-07
 -8.2000002E-04   -4.9384124E-07
 -8.1950001E-04   -3.4496128E-07
 -8.1900001E-04   -1.8774806E-07
 -8.1850000E-04   -3.2479303E-08
 -8.1800000E-04    1.1056715E-07
 -8.1750000E-04    2.3576628E-07
 -8.1699999E-04    3.3971534E-07
 -8.1649999E-04    4.1553932E-07
 -8.1599999E-04    4.6349859E-07
 -8.1549998E-04    4.7993865E-07
 -8.1499998E-04    4.6530226E-07
 -8.1449997E-04    4.2330470E-07
 -8.1400003E-04    3.5906757E-07
 -8.1350002E-04    2.7840679E-07
 -8.1300002E-04    1.8493353E-07
 -8.1250002E-04    7.8022815E-08
 -8.1200001E-04   -3.5867004E-08
 -8.1150001E-04   -1.5277757E-07
 -8.1100001E-04   -2.6909782E-07
 -8.1050000E-04   -3.8237977E-07
 -8.1000000E-04   -4.8797938E-07
 -8.0949999E-04   -5.8165176E-07
 -8.0899999E-04   -6.6276993E-07
 -8.0849999E-04   -7.2318926E-07
 -8.0799998E-04   -7.5736727E-07
 -8.0749998E-04   -7.6250012E-07
 -8.0699997E-04   -7.3599227E-07
 -8.0649997E-04   -6.7933695E-07
 -8.0600003E-04   -5.9006987E-07
 -8.0550002E-04   -4.7362832E-07
 -8.0500002E-04   -3.3364520E-07
 -8.0450001E-04   -1.7432180E-07
 -8.0400001E-04   -7.7967199E-10
 -8.0350001E-04    1.7566173E-07
 -8.0300000E-04    3.5020210E-07
 -8.0250000E-04    5.1433449E-07
 -8.0200000E-04    6.6298941E-07
 -8.0149999E-04    7.8730409E-07
 -8.0099999E-04    8.8151455E-07
 -8.0049998E-04    9.3214862E-07
 -7.9999998E-04    9.3503962E-07
 -7.9949998E-04    8.9084728E-07
 -7.9899997E-04    8.0866874E-07
 -7.9850003E-04    6.8996241E-07
 -7.9800002E-04    5.4195050E-07
 -7.9750002E-04    3.7494550E-07
 -7.9700002E-04    2.0481549E-07
 -7.9650001E-04    5.0553528E-08
 -7.9600001E-04   -7.8645478E-08
 -7.9550000E-04   -1.6892085E-07
 -7.9500000E-04   -2.1634898E-07
 -7.9450000E-04   -2.2412429E-07
 -7.9399999E-04   -1.9009400E-07
 -7.9349999E-04   -1.2161922E-07
 -7.9299998E-04   -3.1755505E-08
 -7.9249998E-04    7.7344374E-08
 -7.9199998E-04    1.9366651E-07
 -7.9149997E-04    3.0658592E-07
 -7.9100003E-04    4.0273449E-07
 -7.9050002E-04    4.6832750E-07
 -7.9000002E-04    4.8927637E-07
 -7.8950002E-04    4.5762107E-07
 -7.8900001E-04    3.6874349E-07
 -7.8850001E-04    2.2861583E-07
 -7.8800000E-04    4.8696460E-08
 -7.8750000E-04   -1.5983409E-07
 -7.8700000E-04   -3.8093410E-07
 -7.8649999E-04   -5.9286754E-07
 -7.8599999E-04   -7.8181478E-07
 -7.8549999E-04   -9.2645644E-07
 -7.8499998E-04   -1.0204383E-06
 -7.8449998E-04   -1.0541423E-06
 -7.8399997E-04   -1.0217526E-06
 -7.8350003E-04   -9.2911091E-07
 -7.8300002E-04   -7.8160815E-07
 -7.8250002E-04   -5.8684833E-07
 -7.8200002E-04   -3.6115097E-07
 -7.8150001E-04   -1.2493278E-07
 -7.8100001E-04    1.0618123E-07
 -7.8050001E-04    3.0437855E-07
 -7.8000000E-04    4.5261049E-07
 -7.7950000E-04    5.4438402E-07
 -7.7899999E-04    5.7218182E-07
 -7.7849999E-04    5.3946735E-07
 -7.7799999E-04    4.6230292E-07
 -7.7749998E-04    3.5464365E-07
 -7.7699998E-04    2.2772217E-07
 -7.7649998E-04    1.0763228E-07
 -7.7599997E-04    1.2394842E-08
 -7.7550003E-04   -3.7703654E-08
 -7.7500002E-04   -3.1096359E-08
 -7.7450002E-04    3.1634062E-08
 -7.7400001E-04    1.4965102E-07
 -7.7350001E-04    3.1041111E-07
 -7.7300001E-04    5.0282927E-07
 -7.7250000E-04    7.1390195E-07
 -7.7200000E-04    9.1951466E-07
 -7.7150000E-04    1.1057740E-06
 -7.7099999E-04    1.2501396E-06
 -7.7049999E-04    1.3400129E-06
 -7.6999998E-04    1.3602681E-06
 -7.6949998E-04    1.3084747E-06
 -7.6899998E-04    1.1760387E-06
 -7.6849997E-04    9.6724852E-07
 -7.6800003E-04    6.9446514E-07
 -7.6750002E-04    3.7428586E-07
 -7.6700002E-04    1.9870345E-08
 -7.6650002E-04   -3.5107303E-07
 -7.6600001E-04   -7.1961193E-07
 -7.6550001E-04   -1.0689060E-06
 -7.6500000E-04   -1.3926750E-06
 -7.6450000E-04   -1.6768347E-06
 -7.6400000E-04   -1.9082859E-06
 -7.6349999E-04   -2.0900841E-06
 -7.6299999E-04   -2.2150421E-06
 -7.6249999E-04   -2.2833333E-06
 -7.6199998E-04   -2.2961033E-06
 -7.6149998E-04   -2.2540121E-06
 -7.6099997E-04   -2.1687611E-06
 -7.6050003E-04   -2.0408884E-06
 -7.6000002E-04   -1.8729893E-06
 -7.5950002E-04   -1.6615702E-06
 -7.5900002E-04   -1.4108687E-06
 -7.5850001E-04   -1.1148113E-06
 -7.5800001E-04   -7.7580245E-07
 -7.5750001E-04   -4.0299142E-07
 -7.5700000E-04    2.2500881E-09
 -7.5650000E-04    4.3478312E-07
 -7.5599999E-04    8.9195146E-07
 -7.5549999E-04    1.3587550E-06
 -7.5499999E-04    1.8178674E-06
 -7.5449998E-04    2.2426218E-06
 -7.5399998E-04    2.6171158E-06
 -7.5349997E-04    2.9249079E-06
 -7.5299997E-04    3.1440020E-06
 -7.5250003E-04    3.2519499E-06
 -7.5200002E-04    3.2450150E-06
 -7.5150002E-04    3.1049356E-06
 -7.5100001E-04    2.8338532E-06
 -7.5050001E-04    2.4382136E-06
 -7.5000001E-04    1.9429560E-06
 -7.4950000E-04    1.3547470E-06
 -7.4900000E-04    6.9497560E-07
 -7.4850000E-04   -1.7469292E-08
 -7.4799999E-04   -7.4060847E-07
 -7.4749999E-04   -1.4505184E-06
 -7.4699998E-04   -2.0961572E-06
 -7.4649998E-04   -2.6482544E-06
 -7.4599998E-04   -3.0673129E-06