 -1.2000001E-03    1.0000000E-24
 -1.1995001E-03    1.0000000E-24
 -1.1990000E-03    1.0000000E-24
 -1.1985000E-03    1.0000000E-24
 -1.1980000E-03    1.0000000E-24
 -1.1975000E-03    1.0000000E-24
 -1.1970000E-03    1.0000000E-24
 -1.1965000E-03    1.0000000E-24
 -1.1960000E-03    1.0000000E-24
 -1.1955000E-03    1.0000001E-24
 -1.1950000E-03    1.0000002E-24
 -1.1945000E-03    1.0000002E-24
 -1.1940000E-03    1.0000002E-24
 -1.1935000E-03    9.9999923E-25
 -1.1930000E-03    9.9998730E-25
 -1.1925000E-03    9.9989155E-25
 -1.1920000E-03    9.9929665E-25
 -1.1915000E-03    9.9624938E-25
 -1.1910000E-03    9.8287848E-25
 -1.1905000E-03    9.3126203E-25
 -1.1900000E-03    7.5261132E-25
 -1.1895000E-03    1.9039160E-25
 -1.1890000E-03   -1.4355496E-24
 -1.1885000E-03   -5.7919592E-24
 -1.1880000E-03   -1.6672711E-23
 -1.1875000E-03   -4.2121663E-23
 -1.1870000E-03   -9.8032035E-23
 -1.1865000E-03   -2.1359067E-22
 -1.1860000E-03   -4.3824462E-22
 -1.1854999E-03   -8.4799109E-22
 -1.1849999E-03   -1.5447478E-21
 -1.1845001E-03   -2.6349824E-21
 -1.1840001E-03   -4.1610073E-21
 -1.1835000E-03   -5.9388232E-21
 -1.1830000E-03   -7.2294107E-21
 -1.1825000E-03   -6.1374370E-21
 -1.1820000E-03    1.4017705E-21
 -1.1815000E-03    2.3206890E-20
 -1.1810000E-03    7.3152816E-20
 -1.1805000E-03    1.7425270E-19
 -1.1800000E-03    3.6238092E-19
 -1.1795000E-03    6.9011901E-19
 -1.1790000E-03    1.2295884E-18
 -1.1785000E-03    2.0722229E-18
 -1.1780000E-03    3.3222189E-18
 -1.1775000E-03    5.0789452E-18
 -1.1770000E-03    7.4020720E-18
 -1.1765000E-03    1.0251954E-17
 -1.1760000E-03    1.3397450E-17
 -1.1755000E-03    1.6284687E-17
 -1.1750000E-03    1.7864368E-17
 -1.1745000E-03    1.6383290E-17
 -1.1740000E-03    9.1588878E-18
 -1.1735000E-03   -7.6249856E-18
 -1.1730000E-03   -3.9037386E-17
 -1.1725000E-03   -9.1340281E-17
 -1.1720000E-03   -1.7162183E-16
 -1.1715000E-03   -2.8696547E-16
 -1.1710000E-03   -4.4297888E-16
 -1.1704999E-03   -6.4151115E-16
 -1.1699999E-03   -8.7742708E-16
 -1.1695001E-03   -1.1344014E-15
 -1.1690001E-03   -1.3798558E-15
 -1.1685000E-03   -1.5594041E-15
 -1.1680000E-03   -1.5914885E-15
 -1.1675000E-03   -1.3632925E-15
 -1.1670000E-03   -7.2944974E-16
 -1.1665000E-03    4.8449400E-16
 -1.1660000E-03    2.4715602E-15
 -1.1655000E-03    5.4233008E-15
 -1.1650000E-03    9.4979498E-15
 -1.1645000E-03    1.4775099E-14
 -1.1640000E-03    2.1196501E-14
 -1.1635000E-03    2.8494510E-14
 -1.1630000E-03    3.6112477E-14
 -1.1625000E-03    4.3124846E-14
 -1.1620000E-03    4.8168721E-14
 -1.1615000E-03    4.9402926E-14
 -1.1610000E-03    4.4514448E-14
 -1.1605000E-03    3.0794997E-14
 -1.1600000E-03    5.3112583E-15
 -1.1595000E-03   -3.4809791E-14
 -1.1590000E-03   -9.1965200E-14
 -1.1585000E-03   -1.6752588E-13
 -1.1580000E-03   -2.6116430E-13
 -1.1575000E-03   -3.7009428E-13
 -1.1570000E-03   -4.8828406E-13
 -1.1565000E-03   -6.0573335E-13
 -1.1560000E-03   -7.0793436E-13
 -1.1555000E-03   -7.7566501E-13
 -1.1549999E-03   -7.8527641E-13
 -1.1544999E-03   -7.0964420E-13
 -1.1540001E-03   -5.1993289E-13
 -1.1535001E-03   -1.8828138E-13
 -1.1530000E-03    3.0855472E-13
 -1.1525000E-03    9.8467198E-13
 -1.1520000E-03    1.8398002E-12
 -1.1515000E-03    2.8537539E-12
 -1.1510000E-03    3.9810781E-12
 -1.1505000E-03    5.1465832E-12
 -1.1500000E-03    6.2425919E-12
 -1.1495000E-03    7.1288214E-12
 -1.1490000E-03    7.6358165E-12
 -1.1485000E-03    7.5727714E-12
 -1.1480000E-03    6.7403327E-12
 -1.1475000E-03    4.9486283E-12
 -1.1470000E-03    2.0402501E-12
 -1.1465000E-03   -2.0827251E-12
 -1.1460000E-03   -7.4293011E-12
 -1.1455000E-03   -1.3890123E-11
 -1.1450000E-03   -2.1211165E-11
 -1.1445000E-03   -2.8974226E-11
 -1.1440000E-03   -3.6588375E-11
 -1.1435000E-03   -4.3296325E-11
 -1.1430000E-03   -4.8199455E-11
 -1.1425000E-03   -5.0304122E-11
 -1.1420000E-03   -4.8590458E-11
 -1.1415000E-03   -4.2102852E-11
 -1.1410000E-03   -3.0058758E-11
 -1.1405000E-03   -1.1969810E-11
 -1.1399999E-03    1.2233650E-11
 -1.1394999E-03    4.2086105E-11
 -1.1390001E-03    7.6492021E-11
 -1.1385001E-03    1.1366715E-10
 -1.1380001E-03    1.5113059E-10
 -1.1375000E-03    1.8576042E-10
 -1.1370000E-03    2.1392238E-10
 -1.1365000E-03    2.3167597E-10
 -1.1360000E-03    2.3505572E-10
 -1.1355000E-03    2.2041750E-10
 -1.1350000E-03    1.8483094E-10
 -1.1345000E-03    1.2649083E-10
 -1.1340000E-03    4.5113014E-11
 -1.1335000E-03   -5.7725869E-11
 -1.1330000E-03   -1.7834702E-10
 -1.1325000E-03   -3.1086825E-10
 -1.1320000E-03   -4.4727849E-10
 -1.1315000E-03   -5.7771388E-10
 -1.1310000E-03   -6.9094541E-10
 -1.1305000E-03   -7.7507156E-10
 -1.1300000E-03   -8.1838614E-10
 -1.1295000E-03   -8.1037260E-10
 -1.1290000E-03   -7.4275336E-10
 -1.1285000E-03   -6.1050842E-10
 -1.1280000E-03   -4.1276629E-10
 -1.1275000E-03   -1.5346921E-10
 -1.1270000E-03    1.5827858E-10
 -1.1265000E-03    5.0825127E-10
 -1.1260000E-03    8.7757501E-10
 -1.1255000E-03    1.2436416E-09
 -1.1250000E-03    1.5814268E-09
 -1.1244999E-03    1.8651340E-09
 -1.1239999E-03    2.0700441E-09
 -1.1235001E-03    2.1744129E-09
 -1.1230001E-03    2.1612481E-09
 -1.1225000E-03    2.0197843E-09
 -1.1220000E-03    1.7464988E-09
 -1.1215000E-03    1.3455448E-09
 -1.1210000E-03    8.2854040E-10
 -1.1205000E-03    2.1372018E-10
 -1.1200000E-03   -4.7546056E-10
 -1.1195000E-03   -1.2121015E-09
 -1.1190000E-03   -1.9677779E-09
 -1.1185000E-03   -2.7143252E-09
 -1.1180000E-03   -3.4252006E-09
 -1.1175000E-03   -4.0761603E-09
 -1.1170000E-03   -4.6450683E-09
 -1.1165000E-03   -5.1107727E-09
 -1.1160000E-03   -5.4511364E-09
 -1.1155000E-03   -5.6404930E-09
 -1.1150000E-03   -5.6469598E-09
 -1.1145000E-03   -5.4302238E-09
 -1.1140000E-03   -4.9404867E-09
 -1.1135000E-03   -4.1193151E-09
 -1.1130000E-03   -2.9030482E-09
 -1.1125000E-03   -1.2292410E-09
 -1.1120000E-03    9.5369124E-10
 -1.1115000E-03    3.6738754E-09
 -1.1110000E-03    6.9211721E-09
 -1.1105000E-03    1.0631442E-08
 -1.1100000E-03    1.4671681E-08
 -1.1094999E-03    1.8828269E-08
 -1.1089999E-03    2.2800814E-08
 -1.1084999E-03    2.6204116E-08
 -1.1080001E-03    2.8580548E-08
 -1.1075001E-03    2.9424458E-08
 -1.1070000E-03    2.8219331E-08
 -1.1065000E-03    2.4487127E-08
 -1.1060000E-03    1.7847672E-08
 -1.1055000E-03    8.0843687E-09
 -1.1050000E-03   -4.7892192E-09
 -1.1045000E-03   -2.0468727E-08
 -1.1040000E-03   -3.8312201E-08
 -1.1035000E-03   -5.7315436E-08
 -1.1030000E-03   -7.6117345E-08
 -1.1025000E-03   -9.3041976E-08
 -1.1020000E-03   -1.0618150E-07
 -1.1015000E-03   -1.1352120E-07
 -1.1010000E-03   -1.1310355E-07
 -1.1005000E-03   -1.0322379E-07
 -1.1000000E-03   -8.2644625E-08
 -1.0995000E-03   -5.0813199E-08
 -1.0990000E-03   -8.0598186E-09
 -1.0985000E-03    4.4244754E-08
 -1.0980000E-03    1.0359683E-07
 -1.0975000E-03    1.6635428E-07
 -1.0970000E-03    2.2783568E-07
 -1.0965000E-03    2.8253541E-07
 -1.0960000E-03    3.2445675E-07
 -1.0955000E-03    3.4755448E-07
 -1.0950000E-03    3.4626567E-07
 -1.0945000E-03    3.1609653E-07
 -1.0939999E-03    2.5422034E-07
 -1.0934999E-03    1.6003335E-07
 -1.0930001E-03    3.5610526E-08
 -1.0925001E-03   -1.1399916E-07
 -1.0920000E-03   -2.8069218E-07
 -1.0915000E-03   -4.5348904E-07
 -1.0910000E-03   -6.1899959E-07
 -1.0905000E-03   -7.6218117E-07
 -1.0900000E-03   -8.6736844E-07
 -1.0895000E-03   -9.1952757E-07
 -1.0890000E-03   -9.0565743E-07
 -1.0885000E-03   -8.1623529E-07
 -1.0880000E-03   -6.4658542E-07
 -1.0875000E-03   -3.9803658E-07
 -1.0870000E-03   -7.8732775E-08
 -1.0865000E-03    2.9602683E-07
 -1.0860000E-03    7.0401813E-07
 -1.0855000E-03    1.1169569E-06
 -1.0850000E-03    1.5020129E-06
 -1.0845000E-03    1.8239330E-06
 -1.0840000E-03    2.0476737E-06
 -1.0835000E-03    2.1413814E-06
 -1.0830000E-03    2.0795096E-06
 -1.0825000E-03    1.8458172E-06
 -1.0820000E-03    1.4359721E-06
 -1.0815000E-03    8.5948159E-07
 -1.0810000E-03    1.4069354E-07
 -1.0805000E-03   -6.8133693E-07
 -1.0800000E-03   -1.5542471E-06
 -1.0795000E-03   -2.4150695E-06
 -1.0790000E-03   -3.1941627E-06
 -1.0784999E-03   -3.8201802E-06
 -1.0779999E-03   -4.2257716E-06
 -1.0775001E-03   -4.3536143E-06
 -1.0770001E-03   -4.1622861E-06
 -1.0765000E-03   -3.6314648E-06
 -1.0760000E-03   -2.7659248E-06
 -1.0755000E-03   -1.5978599E-06
 -1.0750000E-03   -1.8714547E-07
 -1.0745000E-03    1.3806978E-06
 -1.0740000E-03    2.9989096E-06
 -1.0735000E-03    4.5461315E-06
 -1.0730000E-03    5.8949386E-06
 -1.0725000E-03    6.9217222E-06
 -1.0720000E-03    7.5172075E-06
 -1.0715000E-03    7.5967578E-06
 -1.0710000E-03    7.1095697E-06
 -1.0705000E-03    6.0458510E-06
 -1.0700000E-03    4.4411895E-06
 -1.0695000E-03    2.3774744E-06
 -1.0690000E-03   -2.0012422E-08
 -1.0685000E-03   -2.5894199E-06
 -1.0680000E-03   -5.1428092E-06
 -1.0675000E-03   -7.4796940E-06
 -1.0670000E-03   -9.4027173E-06
 -1.0665000E-03   -1.0734270E-05
 -1.0660000E-03   -1.1332688E-05
 -1.0655000E-03   -1.1106562E-05
 -1.0650000E-03   -1.0025784E-05
 -1.0645000E-03   -8.1280887E-06
 -1.0640000E-03   -5.5201999E-06
 -1.0634999E-03   -2.3730793E-06
 -1.0629999E-03    1.0887221E-06
 -1.0625001E-03    4.6030750E-06
 -1.0620001E-03    7.8905823E-06
 -1.0615001E-03    1.0677663E-05
 -1.0610000E-03    1.2720505E-05
 -1.0605000E-03    1.3827778E-05
 -1.0600000E-03    1.3879964E-05
 -1.0595000E-03    1.2843298E-05
 -1.0590000E-03    1.0776715E-05
 -1.0585000E-03    7.8307121E-06
 -1.0580000E-03    4.2377224E-06
 -1.0575000E-03    2.9437797E-07
 -1.0570000E-03   -3.6631511E-06
 -1.0565000E-03   -7.2888402E-06
 -1.0560000E-03   -1.0258971E-05
 -1.0555000E-03   -1.2303828E-05
 -1.0550000E-03   -1.3235813E-05
 -1.0545000E-03   -1.2970999E-05
 -1.0540000E-03   -1.1541581E-05
 -1.0535000E-03   -9.0973790E-06
 -1.0530000E-03   -5.8955279E-06
 -1.0525000E-03   -2.2785800E-06
 -1.0520000E-03    1.3575469E-06
 -1.0515000E-03    4.6032324E-06
 -1.0510000E-03    7.0788915E-06
 -1.0505000E-03    8.4785634E-06
 -1.0500000E-03    8.6087866E-06
 -1.0495000E-03    7.4183040E-06
 -1.0490000E-03    5.0146909E-06
 -1.0485000E-03    1.6650167E-06
 -1.0479999E-03   -2.2209829E-06
 -1.0474999E-03   -6.1250398E-06
 -1.0470001E-03   -9.4698426E-06
 -1.0465001E-03   -1.1680128E-05
 -1.0460000E-03   -1.2250053E-05
 -1.0455000E-03   -1.0810362E-05
 -1.0450000E-03   -7.1882187E-06
 -1.0445000E-03   -1.4525766E-06
 -1.0440000E-03    6.0612597E-06
 -1.0435000E-03    1.4752817E-05
 -1.0430000E-03    2.3786179E-05
 -1.0425000E-03    3.2148488E-05
 -1.0420000E-03    3.8734535E-05
 -1.0415000E-03    4.2451869E-05
 -1.0410000E-03    4.2338179E-05
 -1.0405000E-03    3.7680515E-05
 -1.0400000E-03    2.8124656E-05
 -1.0395000E-03    1.3762564E-05
 -1.0390000E-03   -4.8133584E-06
 -1.0385000E-03   -2.6498437E-05
 -1.0380000E-03   -4.9712511E-05
 -1.0375000E-03   -7.2487499E-05
 -1.0370000E-03   -9.2603324E-05
 -1.0365000E-03   -1.0776480E-04
 -1.0360000E-03   -1.1580753E-04
 -1.0355000E-03   -1.1491680E-04
 -1.0350000E-03   -1.0384036E-04
 -1.0345000E-03   -8.2074868E-05
 -1.0340000E-03   -5.0005645E-05
 -1.0335000E-03   -8.9820251E-06
 -1.0329999E-03    3.8685816E-05
 -1.0324999E-03    8.9816502E-05
 -1.0319999E-03    1.4053482E-04
 -1.0315001E-03    1.8652999E-04
 -1.0310001E-03    2.2338038E-04
 -1.0305000E-03    2.4692243E-04
 -1.0300000E-03    2.5363584E-04
 -1.0295000E-03    2.4101289E-04
 -1.0290000E-03    2.0787788E-04
 -1.0285000E-03    1.5462408E-04
 -1.0280000E-03    8.3340303E-05
 -1.0275000E-03   -2.1947503E-06
 -1.0270000E-03   -9.6661526E-05
 -1.0265000E-03   -1.9349242E-04
 -1.0260000E-03   -2.8529609E-04
 -1.0255000E-03   -3.6438872E-04
 -1.0250000E-03   -4.2339638E-04
 -1.0245000E-03   -4.5588365E-04
 -1.0240000E-03   -4.5695764E-04
 -1.0235000E-03   -4.2379522E-04
 -1.0230000E-03   -3.5604238E-04
 -1.0225000E-03   -2.5604316E-04
 -1.0220000E-03   -1.2886574E-04
 -1.0215000E-03    1.7892351E-05
 -1.0210000E-03    1.7451904E-04
 -1.0205000E-03    3.2980533E-04
 -1.0200000E-03    4.7182877E-04
 -1.0195000E-03    5.8884977E-04
 -1.0190000E-03    6.7025557E-04
 -1.0185000E-03    7.0747692E-04
 -1.0180000E-03    6.9480104E-04
 -1.0174999E-03    6.3000811E-04
 -1.0169999E-03    5.1476766E-04
 -1.0165001E-03    3.5474845E-04
 -1.0160001E-03    1.5941481E-04
 -1.0155000E-03   -5.8491856E-05
 -1.0150000E-03   -2.8376313E-04
 -1.0145000E-03   -4.9977587E-04
 -1.0140000E-03   -6.8971509E-04
 -1.0135000E-03   -8.3787856E-04
 -1.0130000E-03   -9.3096076E-04
 -1.0125000E-03   -9.5921411E-04
 -1.0120000E-03   -9.1738562E-04
 -1.0115000E-03   -8.0534403E-04
 -1.0110000E-03   -6.2833226E-04
 -1.0105000E-03   -3.9680721E-04
 -1.0100000E-03   -1.2586112E-04
 -1.0095000E-03    1.6574746E-04
 -1.0090000E-03    4.5689224E-04
 -1.0085000E-03    7.2561752E-04
 -1.0080000E-03    9.5080340E-04
 -1.0075000E-03    1.1138294E-03
 -1.0070000E-03    1.2001048E-03
 -1.0065000E-03    1.2003387E-03
 -1.0060000E-03    1.1114394E-03
 -1.0055000E-03    9.3696098E-04
 -1.0050000E-03    6.8704359E-04
 -1.0045000E-03    3.7784016E-04
 -1.0040000E-03    3.0456986E-05
 -1.0035000E-03   -3.3052039E-04
 -1.0030000E-03   -6.7881116E-04
 -1.0025000E-03   -9.8839973E-04
 -1.0019999E-03   -1.2355226E-03
 -1.0014999E-03   -1.4005242E-03
 -1.0010001E-03   -1.4694339E-03
 -1.0005001E-03   -1.4351335E-03
 -1.0000000E-03   -1.2980150E-03
 -9.9950004E-04   -1.0660701E-03
 -9.9900004E-04   -7.5439306E-04
 -9.9850004E-04   -3.8413188E-04
 -9.9800003E-04    1.9040630E-05
 -9.9750003E-04    4.2681655E-04
 -9.9700002E-04    8.1035943E-04
 -9.9650002E-04    1.1424625E-03
 -9.9600002E-04    1.3995884E-03
 -9.9550001E-04    1.5636296E-03
 -9.9500001E-04    1.6232484E-03
 -9.9450001E-04    1.5746935E-03
 -9.9400000E-04    1.4220251E-03
 -9.9350000E-04    1.1767392E-03
 -9.9299999E-04    8.5681828E-04
 -9.9249999E-04    4.8529400E-04
 -9.9199999E-04    8.8438253E-05
 -9.9149998E-04   -3.0626595E-04
 -9.9099998E-04   -6.7220861E-04
 -9.9049998E-04   -9.8562194E-04
 -9.8999997E-04   -1.2272786E-03
 -9.8949997E-04   -1.3837848E-03
 -9.8899996E-04   -1.4483727E-03
 -9.8849996E-04   -1.4211407E-03
 -9.8799996E-04   -1.3087339E-03
 -9.8749995E-04   -1.1235123E-03
 -9.8699995E-04   -8.8228879E-04
 -9.8649994E-04   -6.0476240E-04
 -9.8600006E-04   -3.1178992E-04
 -9.8550005E-04   -2.3652688E-05
 -9.8500005E-04    2.4152912E-04
 -9.8450005E-04    4.6909979E-04
 -9.8400004E-04    6.4878381E-04
 -9.8350004E-04    7.7514694E-04
 -9.8300003E-04    8.4758026E-04
 -9.8250003E-04    8.6983037E-04
 -9.8200003E-04    8.4914110E-04
 -9.8150002E-04    7.9510960E-04
 -9.8100002E-04    7.1838329E-04
 -9.8050002E-04    6.2933966E-04
 -9.8000001E-04    5.3688814E-04
 -9.7950001E-04    4.4752003E-04
 -9.7900000E-04    3.6470519E-04
 -9.7850000E-04    2.8869772E-04
 -9.7800000E-04    2.1676949E-04
 -9.7749999E-04    1.4384522E-04
 -9.7699999E-04    6.3470121E-05
 -9.7649998E-04   -3.0995947E-05
 -9.7599998E-04   -1.4509038E-04
 -9.7549998E-04   -2.8201219E-04
 -9.7499997E-04   -4.4158471E-04
 -9.7450003E-04   -6.1954773E-04
 -9.7400002E-04   -8.0728071E-04
 -9.7350002E-04   -9.9202059E-04
 -9.7300002E-04   -1.1575894E-03
 -9.7250001E-04   -1.2855961E-03
 -9.7200001E-04   -1.3570295E-03
 -9.7150001E-04   -1.3541146E-03
 -9.7100000E-04   -1.2622713E-03
 -9.7050000E-04   -1.0719963E-03
 -9.6999999E-04   -7.8048254E-04
 -9.6949999E-04   -3.9280730E-04
 -9.6899999E-04    7.7458441E-05
 -9.6849998E-04    6.0831697E-04
 -9.6799998E-04    1.1701373E-03
 -9.6749997E-04    1.7271634E-03
 -9.6700003E-04    2.2396652E-03
 -9.6650003E-04    2.6666024E-03
 -9.6600002E-04    2.9686224E-03
 -9.6550002E-04    3.1111785E-03
 -9.6500001E-04    3.0675302E-03
 -9.6450001E-04    2.8213880E-03
 -9.6400001E-04    2.3689789E-03
 -9.6350000E-04    1.7203446E-03
 -9.6300000E-04    8.9973019E-04
 -9.6249999E-04   -5.5015254E-05
 -9.6199999E-04   -1.0940371E-03
 -9.6149999E-04   -2.1580106E-03
 -9.6099998E-04   -3.1814843E-03
 -9.6049998E-04   -4.0968377E-03
 -9.5999998E-04   -4.8386115E-03
 -9.5949997E-04   -5.3479332E-03
 -9.5900003E-04   -5.5767456E-03
 -9.5850002E-04   -5.4915454E-03
 -9.5800002E-04   -5.0763669E-03
 -9.5750001E-04   -4.3347832E-03
 -9.5700001E-04   -3.2907487E-03
 -9.5650001E-04   -1.9881898E-03
 -9.5600000E-04   -4.8930664E-04
 -9.5550000E-04    1.1283491E-03
 -9.5500000E-04    2.7758949E-03
 -9.5449999E-04    4.3580267E-03
 -9.5399999E-04    5.7785464E-03
 -9.5349998E-04    6.9461982E-03
 -9.5299998E-04    7.7804574E-03
 -9.5249998E-04    8.2169222E-03
 -9.5199997E-04    8.2119536E-03
 -9.5150003E-04    7.7462550E-03
 -9.5100002E-04    6.8271188E-03
 -9.5050002E-04    5.4891459E-03
 -9.5000002E-04    3.7933274E-03
 -9.4950001E-04    1.8244688E-03
 -9.4900001E-04   -3.1296341E-04
 -9.4850000E-04   -2.5003876E-03
 -9.4800000E-04   -4.6117706E-03
 -9.4750000E-04   -6.5210448E-03
 -9.4699999E-04   -8.1098583E-03
 -9.4649999E-04   -9.2751840E-03
 -9.4599999E-04   -9.9363001E-03
 -9.4549998E-04   -1.0040676E-02
 -9.4499998E-04   -9.5683234E-03
 -9.4449997E-04   -8.5342638E-03
 -9.4400003E-04   -6.9888681E-03
 -9.4350002E-04   -5.0159185E-03
 -9.4300002E-04   -2.7284357E-03
 -9.4250002E-04   -2.6241454E-04
 -9.4200001E-04    2.2312035E-03
 -9.4150001E-04    4.5958795E-03
 -9.4100001E-04    6.6795736E-03
 -9.4050000E-04    8.3449529E-03
 -9.4000000E-04    9.4790086E-03
 -9.3949999E-04    1.0001402E-02
 -9.3899999E-04    9.8709064E-03
 -9.3849999E-04    9.0894075E-03
 -9.3799998E-04    7.7030840E-03
 -9.3749998E-04    5.8005466E-03
 -9.3699998E-04    3.5079496E-03
 -9.3649997E-04    9.8128291E-04
 -9.3600003E-04   -1.6037143E-03
 -9.3550002E-04   -4.0634037E-03
 -9.3500002E-04   -6.2190727E-03
 -9.3450001E-04   -7.9098493E-03
 -9.3400001E-04   -9.0047708E-03
 -9.3350001E-04   -9.4130961E-03
 -9.3300000E-04   -9.0920450E-03
 -9.3250000E-04   -8.0512883E-03
 -9.3200000E-04   -6.3537657E-03
 -9.3149999E-04   -4.1126139E-03
 -9.3099999E-04   -1.4843214E-03
 -9.3049998E-04    1.3415242E-03
 -9.2999998E-04    4.1552410E-03
 -9.2949998E-04    6.7419284E-03
 -9.2899997E-04    8.8971667E-03
 -9.2850003E-04    1.0442392E-02
 -9.2800002E-04    1.1238791E-02
 -9.2750002E-04    1.1198631E-02
 -9.2700002E-04    1.0293121E-02
 -9.2650001E-04    8.5561024E-03
 -9.2600001E-04    6.0832226E-03
 -9.2550000E-04    3.0265143E-03
 -9.2500000E-04   -4.1528887E-04
 -9.2450000E-04   -4.0100887E-03
 -9.2399999E-04   -7.5084683E-03
 -9.2349999E-04   -1.0661308E-02
 -9.2299999E-04   -1.3237678E-02
 -9.2249998E-04   -1.5041682E-02
 -9.2199998E-04   -1.5926978E-02
 -9.2149997E-04   -1.5807867E-02
 -9.2100003E-04   -1.4666093E-02
 -9.2050002E-04   -1.2552819E-02
 -9.2000002E-04   -9.5855929E-03
 -9.1950002E-04   -5.9405095E-03
 -9.1900001E-04   -1.8401527E-03
 -9.1850001E-04    2.4618017E-03
 -9.1800001E-04    6.6981586E-03
 -9.1750000E-04    1.0606647E-02
 -9.1700000E-04    1.3947845E-02
 -9.1649999E-04    1.6521282E-02
 -9.1599999E-04    1.8178506E-02
 -9.1549999E-04    1.8832218E-02
 -9.1499998E-04    1.8460847E-02
 -9.1449998E-04    1.7108312E-02
 -9.1399997E-04    1.4879093E-02
 -9.1349997E-04    1.1929112E-02
 -9.1300003E-04    8.4532322E-03
 -9.1250002E-04    4.6704034E-03
 -9.1200002E-04    8.0770749E-04
 -9.1150001E-04   -2.9154669E-03
 -9.1100001E-04   -6.3018831E-03
 -9.1050001E-04   -9.1884881E-03
 -9.1000000E-04   -1.1455186E-02
 -9.0950000E-04   -1.3029813E-02
 -9.0899999E-04   -1.3889113E-02
 -9.0849999E-04   -1.4055857E-02
 -9.0799999E-04   -1.3592558E-02
 -9.0749998E-04   -1.2592508E-02
 -9.0699998E-04   -1.1169078E-02
 -9.0649998E-04   -9.4442917E-03
 -9.0599997E-04   -7.5377477E-03
 -9.0550003E-04   -5.5568446E-03
 -9.0500002E-04   -3.5891305E-03
 -9.0450002E-04   -1.6973466E-03
 -9.0400001E-04    8.2529172E-05
 -9.0350001E-04    1.7402355E-03
 -9.0300001E-04    3.2874602E-03
 -9.0250000E-04    4.7518848E-03
 -9.0200000E-04    6.1697769E-03
 -9.0150000E-04    7.5779711E-03
 -9.0099999E-04    9.0061417E-03
 -9.0049999E-04    1.0470196E-02
 -8.9999998E-04    1.1967492E-02
 -8.9949998E-04    1.3474423E-02
 -8.9899998E-04    1.4946599E-02
 -8.9849997E-04    1.6321674E-02
 -8.9800003E-04    1.7524503E-02
 -8.9750002E-04    1.8474212E-02
 -8.9700002E-04    1.9092381E-02
 -8.9650002E-04    1.9311635E-02
 -8.9600001E-04    1.9083710E-02
 -8.9550001E-04    1.8386209E-02
 -8.9500000E-04    1.7227324E-02
 -8.9450000E-04    1.5647987E-02
 -8.9400000E-04    1.3721174E-02
 -8.9349999E-04    1.1548308E-02
 -8.9299999E-04    9.2529729E-03
 -8.9249999E-04    6.9724475E-03
 -8.9199998E-04    4.8476956E-03
 -8.9149998E-04    3.0126681E-03
 -8.9099997E-04    1.5838076E-03
 -8.9050003E-04    6.5064227E-04
 -8.9000002E-04    2.6830018E-04
 -8.8950002E-04    4.5260027E-04
 -8.8900002E-04    1.1781786E-03
 -8.8850001E-04    2.3798605E-03
 -8.8800001E-04    3.9572213E-03
 -8.8750001E-04    5.7820231E-03
 -8.8700000E-04    7.7079711E-03
 -8.8650000E-04    9.5820557E-03
 -8.8599999E-04    1.1256602E-02
 -8.8549999E-04    1.2601105E-02
 -8.8499999E-04    1.3512918E-02
 -8.8449998E-04    1.3925979E-02
 -8.8399998E-04    1.3816869E-02
 -8.8349998E-04    1.3207722E-02
 -8.8299997E-04    1.2165742E-02
 -8.8250003E-04    1.0799299E-02
 -8.8200002E-04    9.2508746E-03
 -8.8150002E-04    7.6873135E-03
 -8.8100001E-04    6.2880497E-03
 -8.8050001E-04    5.2321204E-03
 -8.8000001E-04    4.6848585E-03
 -8.7950000E-04    4.7851931E-03
 -8.7900000E-04    5.6344294E-03
 -8.7850000E-04    7.2873086E-03
 -8.7799999E-04    9.7459899E-03
 -8.7749999E-04    1.2957401E-02
 -8.7699998E-04    1.6814217E-02
 -8.7649998E-04    2.1159479E-02
 -8.7599998E-04    2.5794622E-02
 -8.7549997E-04    3.0490514E-02
 -8.7500003E-04    3.5000850E-02
 -8.7450002E-04    3.9077118E-02
 -8.7400002E-04    4.2484257E-02
 -8.7350002E-04    4.5016043E-02
 -8.7300001E-04    4.6509173E-02
 -8.7250001E-04    4.6855189E-02
 -8.7200000E-04    4.6009347E-02
 -8.7150000E-04    4.3995794E-02
 -8.7100000E-04    4.0908549E-02
 -8.7049999E-04    3.6908049E-02
 -8.6999999E-04    3.2213293E-02
 -8.6949999E-04    2.7089879E-02
 -8.6899998E-04    2.1834506E-02
 -8.6849998E-04    1.6756799E-02
 -8.6799997E-04    1.2159472E-02
 -8.6750003E-04    8.3181243E-03
 -8.6700002E-04    5.4619177E-03
 -8.6650002E-04    3.7565602E-03
 -8.6600002E-04    3.2908276E-03
 -8.6550001E-04    4.0677679E-03
 -8.6500001E-04    6.0014538E-03
 -8.6450001E-04    8.9198295E-03
 -8.6400000E-04    1.2573805E-02
 -8.6350000E-04    1.6652321E-02
 -8.6299999E-04    2.0802671E-02
 -8.6249999E-04    2.4654930E-02
 -8.6199999E-04    2.7848979E-02
 -8.6149998E-04    3.0062338E-02
 -8.6099998E-04    3.1036817E-02
 -8.6049997E-04    3.0601989E-02
 -8.5999997E-04    2.8693547E-02
 -8.5950003E-04    2.5364930E-02
 -8.5900002E-04    2.0790916E-02
 -8.5850002E-04    1.5262475E-02
 -8.5800001E-04    9.1727031E-03
 -8.5750001E-04    2.9943816E-03
 -8.5700001E-04   -2.7497106E-03
 -8.5650000E-04   -7.5219469E-03
 -8.5600000E-04   -1.0808205E-02
 -8.5549999E-04   -1.2156801E-02
 -8.5499999E-04   -1.1215187E-02
 -8.5449999E-04   -7.7616200E-03
 -8.5399998E-04   -1.7292683E-03
 -8.5349998E-04    6.7793950E-03
 -8.5299998E-04    1.7489396E-02
 -8.5249997E-04    2.9962016E-02
 -8.5200003E-04    4.3615405E-02
 -8.5150002E-04    5.7756070E-02
 -8.5100002E-04    7.1619458E-02
 -8.5050002E-04    8.4417053E-02
 -8.5000001E-04    9.5386930E-02
 -8.4950001E-04    0.1038443    
 -8.4900000E-04    0.1092286    
 -8.4850000E-04    0.1111430    
 -8.4800000E-04    0.1093853    
 -8.4749999E-04    0.1039646    
 -8.4699999E-04    9.5105976E-02
 -8.4649998E-04    8.3239771E-02
 -8.4599998E-04    6.8977147E-02
 -8.4549998E-04    5.3073548E-02
 -8.4499997E-04    3.6381979E-02
 -8.4450003E-04    1.9799570E-02
 -8.4400002E-04    4.2109364E-03
 -8.4350002E-04   -9.5676631E-03
 -8.4300002E-04   -2.0839518E-02
 -8.4250001E-04   -2.9070444E-02
 -8.4200001E-04   -3.3920601E-02
 -8.4150000E-04   -3.5262946E-02
 -8.4100000E-04   -3.3187177E-02
 -8.4050000E-04   -2.7989045E-02
 -8.3999999E-04   -2.0145899E-02
 -8.3949999E-04   -1.0280438E-02
 -8.3899999E-04    8.8463607E-04
 -8.3849998E-04    1.2577670E-02
 -8.3799998E-04    2.4031125E-02
 -8.3749997E-04    3.4532852E-02
 -8.3700003E-04    4.3472003E-02
 -8.3650002E-04    5.0376426E-02
 -8.3600002E-04    5.4939192E-02
 -8.3550002E-04    5.7032663E-02
 -8.3500001E-04    5.6709498E-02
 -8.3450001E-04    5.4191019E-02
 -8.3400001E-04    4.9844224E-02
 -8.3350000E-04    4.4149540E-02
 -8.3300000E-04    3.7662037E-02
 -8.3249999E-04    3.0969199E-02
 -8.3199999E-04    2.4648452E-02
 -8.3149999E-04    1.9227553E-02
 -8.3099998E-04    1.5150595E-02
 -8.3049998E-04    1.2751778E-02
 -8.2999998E-04    1.2238467E-02
 -8.2949997E-04    1.3684207E-02
 -8.2900003E-04    1.7031599E-02
 -8.2850002E-04    2.2104193E-02
 -8.2800002E-04    2.8625855E-02
 -8.2750001E-04    3.6245666E-02
 -8.2700001E-04    4.4566013E-02
 -8.2650001E-04    5.3171471E-02
 -8.2600000E-04    6.1656259E-02
 -8.2550000E-04    6.9648169E-02
 -8.2500000E-04    7.6827526E-02
 -8.2449999E-04    8.2940102E-02
 -8.2399999E-04    8.7803602E-02
 -8.2349998E-04    9.1307938E-02
 -8.2299998E-04    9.3410000E-02
 -8.2249998E-04    9.4124123E-02
 -8.2199997E-04    9.3509659E-02
 -8.2150003E-04    9.1657452E-02
 -8.2100002E-04    8.8676579E-02
 -8.2050002E-04    8.4682971E-02
 -8.2000002E-04    7.9790927E-02
 -8.1950001E-04    7.4108340E-02
 -8.1900001E-04    6.7735724E-02
 -8.1850000E-04    6.0768969E-02
 -8.1800000E-04    5.3305048E-02
 -8.1750000E-04    4.5449737E-02
 -8.1699999E-04    3.7326001E-02
 -8.1649999E-04    2.9081726E-02
 -8.1599999E-04    2.0895418E-02
 -8.1549998E-04    1.2978716E-02
 -8.1499998E-04    5.5748518E-03
 -8.1449997E-04   -1.0474053E-03
 -8.1400003E-04   -6.6043241E-03
 -8.1350002E-04   -1.0811832E-02
 -8.1300002E-04   -1.3403258E-02
 -8.1250002E-04   -1.4148885E-02
 -8.1200001E-04   -1.2875732E-02
 -8.1150001E-04   -9.4858492E-03
 -8.1100001E-04   -3.9713946E-03
 -8.1050000E-04    3.5750451E-03
 -8.1000000E-04    1.2956164E-02
 -8.0949999E-04    2.3872502E-02
 -8.0899999E-04    3.5932191E-02
 -8.0849999E-04    4.8667643E-02
 -8.0799998E-04    6.1558411E-02
 -8.0749998E-04    7.4058898E-02
 -8.0699997E-04    8.5629202E-02
 -8.0649997E-04    9.5767036E-02
 -8.0600003E-04    0.1040386    
 -8.0550002E-04    0.1101059    
 -8.0500002E-04    0.1137494    
 -8.0450001E-04    0.1148828    
 -8.0400001E-04    0.1135605    
 -8.0350001E-04    0.1099753    
 -8.0300000E-04    0.1044479    
 -8.0250000E-04    9.7407773E-02
 -8.0200000E-04    8.9366645E-02
 -8.0149999E-04    8.0886848E-02
 -8.0099999E-04    7.2546043E-02
 -8.0049998E-04    6.4900853E-02
 -7.9999998E-04    5.8451924E-02
 -7.9949998E-04    5.3612560E-02
 -7.9899997E-04    5.0683159E-02
 -7.9850003E-04    4.9833044E-02
 -7.9800002E-04    5.1090900E-02
 -7.9750002E-04    5.4344386E-02
 -7.9700002E-04    5.9348911E-02
 -7.9650001E-04    6.5744869E-02
 -7.9600001E-04    7.3082142E-02
 -7.9550000E-04    8.0850177E-02
 -7.9500000E-04    8.8511579E-02
 -7.9450000E-04    9.5536977E-02
 -7.9399999E-04    0.1014389    
 -7.9349999E-04    0.1058024    
 -7.9299998E-04    0.1083108    
 -7.9249998E-04    0.1087640    
 -7.9199998E-04    0.1070902    
 -7.9149997E-04    0.1033487    
 -7.9100003E-04    9.7723901E-02
 -7.9050002E-04    9.0512715E-02
 -7.9000002E-04    8.2104549E-02
 -7.8950002E-04    7.2956234E-02
 -7.8900001E-04    6.3563563E-02
 -7.8850001E-04    5.4431099E-02
 -7.8800000E-04    4.6042431E-02
 -7.8750000E-04    3.8832650E-02
 -7.8700000E-04    3.3164673E-02
 -7.8649999E-04    2.9310830E-02
 -7.8599999E-04    2.7440650E-02
 -7.8549999E-04    2.7615407E-02
 -7.8499998E-04    2.9789537E-02
 -7.8449998E-04    3.3818565E-02
 -7.8399997E-04    3.9472833E-02
 -7.8350003E-04    4.6455923E-02
 -7.8300002E-04    5.4426450E-02
 -7.8250002E-04    6.3021667E-02
 -7.8200002E-04    7.1881302E-02
 -7.8150001E-04    8.0670007E-02
 -7.8100001E-04    8.9097045E-02
 -7.8050001E-04    9.6931852E-02
 -7.8000000E-04    0.1040145    
 -7.7950000E-04    0.1102606    
 -7.7899999E-04    0.1156601    
 -7.7849999E-04    0.1202702    
 -7.7799999E-04    0.1242034    
 -7.7749998E-04    0.1276109    
 -7.7699998E-04    0.1306625    
 -7.7649998E-04    0.1335259    
 -7.7599997E-04    0.1363449    
 -7.7550003E-04    0.1392200    
 -7.7500002E-04    0.1421924    
 -7.7450002E-04    0.1452323    
 -7.7400001E-04    0.1482344    
 -7.7350001E-04    0.1510189    
 -7.7300001E-04    0.1533411    
 -7.7250000E-04    0.1549077    
 -7.7200000E-04    0.1553988    
 -7.7150000E-04    0.1544959    
 -7.7099999E-04    0.1519127    
 -7.7049999E-04    0.1474271    
 -7.6999998E-04    0.1409112    
 -7.6949998E-04    0.1323583    
 -7.6899998E-04    0.1219020    
 -7.6849997E-04    0.1098276    
 -7.6800003E-04    9.6572265E-02
 -7.6750002E-04    8.2713552E-02
 -7.6700002E-04    6.8946309E-02
 -7.6650002E-04    5.6047942E-02
 -7.6600001E-04    4.4834096E-02
 -7.6550001E-04    3.6107015E-02
 -7.6500000E-04    3.0599874E-02
 -7.6450000E-04    2.8920958E-02
 -7.6400000E-04    3.1501785E-02
 -7.6349999E-04    3.8553432E-02
 -7.6299999E-04    5.0034922E-02
 -7.6249999E-04    6.5636970E-02
 -7.6199998E-04    8.4783398E-02
 -7.6149998E-04    0.1066513    
 -7.6099997E-04    0.1302101    
 -7.6050003E-04    0.1542769    
 -7.6000002E-04    0.1775865    
 -7.5950002E-04    0.1988701    
 -7.5900002E-04    0.2169393    
 -7.5850001E-04    0.2307674    
 -7.5800001E-04    0.2395633    
 -7.5750001E-04    0.2428323    
 -7.5700000E-04    0.2404173    
 -7.5650000E-04    0.2325187    
 -7.5599999E-04    0.2196880    
 -7.5549999E-04    0.2027976    
 -7.5499999E-04    0.1829863    
 -7.5449998E-04    0.1615838    
 -7.5399998E-04    0.1400211    
 -7.5349997E-04    0.1197307    
 -7.5299997E-04    0.1020467    
 -7.5250003E-04    8.8109337E-02
 -7.5200002E-04    7.8784235E-02
 -7.5150002E-04    7.4600935E-02
 -7.5100001E-04    7.5716339E-02
 -7.5050001E-04    8.1906267E-02
 -7.5000001E-04    9.2585891E-02
 -7.4950000E-04    0.1068578    
 -7.4900000E-04    0.1235839    
 -7.4850000E-04    0.1414759    
 -7.4799999E-04    0.1591968    
 -7.4749999E-04    0.1754656    
 -7.4699998E-04    0.1891565    
 -7.4649998E-04    0.1993850    
 -7.4599998E-04    0.2055728    