 -1.2000001E-03    1.0000000E-24
 -1.1995001E-03    1.0000000E-24
 -1.1990000E-03    1.0000000E-24
 -1.1985000E-03    1.0000000E-24
 -1.1980000E-03    1.0000000E-24
 -1.1975000E-03    1.0000000E-24
 -1.1970000E-03    1.0000000E-24
 -1.1965000E-03    1.0000000E-24
 -1.1960000E-03    1.0000000E-24
 -1.1955000E-03    1.0000001E-24
 -1.1950000E-03    1.0000002E-24
 -1.1945000E-03    1.0000002E-24
 -1.1940000E-03    1.0000002E-24
 -1.1935000E-03    1.0000002E-24
 -1.1930000E-03    1.0000002E-24
 -1.1925000E-03    1.0000002E-24
 -1.1920000E-03    1.0000002E-24
 -1.1915000E-03    1.0000002E-24
 -1.1910000E-03    1.0000002E-24
 -1.1905000E-03    1.0000002E-24
 -1.1900000E-03    1.0000002E-24
 -1.1895000E-03    1.0000002E-24
 -1.1890000E-03    1.0000002E-24
 -1.1885000E-03    1.0000002E-24
 -1.1880000E-03    1.0000002E-24
 -1.1875000E-03    1.0000002E-24
 -1.1870000E-03    1.0000002E-24
 -1.1865000E-03    1.0000002E-24
 -1.1860000E-03    1.0000002E-24
 -1.1854999E-03    1.0000002E-24
 -1.1849999E-03    1.0000001E-24
 -1.1845001E-03    1.0000000E-24
 -1.1840001E-03    1.0000000E-24
 -1.1835000E-03    1.0000000E-24
 -1.1830000E-03    1.0000000E-24
 -1.1825000E-03    1.0000000E-24
 -1.1820000E-03    1.0000000E-24
 -1.1815000E-03    1.0000000E-24
 -1.1810000E-03    1.0000000E-24
 -1.1805000E-03    1.0000000E-24
 -1.1800000E-03    1.0000000E-24
 -1.1795000E-03    1.0000001E-24
 -1.1790000E-03    1.0000002E-24
 -1.1785000E-03    1.0000003E-24
 -1.1780000E-03    1.0000003E-24
 -1.1775000E-03    1.0000003E-24
 -1.1770000E-03    1.0000003E-24
 -1.1765000E-03    1.0000003E-24
 -1.1760000E-03    1.0000002E-24
 -1.1755000E-03    1.0000001E-24
 -1.1750000E-03    9.9999992E-25
 -1.1745000E-03    9.9999963E-25
 -1.1740000E-03    9.9999923E-25
 -1.1735000E-03    9.9999864E-25
 -1.1730000E-03    9.9999775E-25
 -1.1725000E-03    9.9999647E-25
 -1.1720000E-03    9.9999479E-25
 -1.1715000E-03    9.9999272E-25
 -1.1710000E-03    9.9999065E-25
 -1.1704999E-03    9.9998937E-25
 -1.1699999E-03    9.9999075E-25
 -1.1695001E-03    9.9999824E-25
 -1.1690001E-03    1.0000180E-24
 -1.1685000E-03    1.0000598E-24
 -1.1680000E-03    1.0001392E-24
 -1.1675000E-03    1.0002786E-24
 -1.1670000E-03    1.0005090E-24
 -1.1665000E-03    1.0008705E-24
 -1.1660000E-03    1.0014097E-24
 -1.1655000E-03    1.0021737E-24
 -1.1650000E-03    1.0031963E-24
 -1.1645000E-03    1.0044731E-24
 -1.1640000E-03    1.0059208E-24
 -1.1635000E-03    1.0073156E-24
 -1.1630000E-03    1.0082058E-24
 -1.1625000E-03    1.0077965E-24
 -1.1620000E-03    1.0048098E-24
 -1.1615000E-03    9.9732923E-25
 -1.1610000E-03    9.8265603E-25
 -1.1605000E-03    9.5722088E-25
 -1.1600000E-03    9.1662137E-25
 -1.1595000E-03    8.5589022E-25
 -1.1590000E-03    7.7013256E-25
 -1.1585000E-03    6.5570671E-25
 -1.1580000E-03    5.1214566E-25
 -1.1575000E-03    3.4501771E-25
 -1.1570000E-03    1.6988268E-25
 -1.1565000E-03    1.7392673E-26
 -1.1560000E-03   -6.0610599E-26
 -1.1555000E-03    1.5531220E-26
 -1.1549999E-03    3.5952577E-25
 -1.1544999E-03    1.1234336E-24
 -1.1540001E-03    2.4977579E-24
 -1.1535001E-03    4.7041953E-24
 -1.1530000E-03    7.9770830E-24
 -1.1525000E-03    1.2528911E-23
 -1.1520000E-03    1.8494980E-23
 -1.1515000E-03    2.5852758E-23
 -1.1510000E-03    3.4312998E-23
 -1.1505000E-03    4.3182741E-23
 -1.1500000E-03    5.1205422E-23
 -1.1495000E-03    5.6390516E-23
 -1.1490000E-03    5.5855063E-23
 -1.1485000E-03    4.5711429E-23
 -1.1480000E-03    2.1049518E-23
 -1.1475000E-03   -2.3924466E-23
 -1.1470000E-03   -9.5518036E-23
 -1.1465000E-03   -1.9986931E-22
 -1.1460000E-03   -3.4187003E-22
 -1.1455000E-03   -5.2362926E-22
 -1.1450000E-03   -7.4244559E-22
 -1.1445000E-03   -9.8831412E-22
 -1.1440000E-03   -1.2410801E-21
 -1.1435000E-03   -1.4674682E-21
 -1.1430000E-03   -1.6183602E-21
 -1.1425000E-03   -1.6268633E-21
 -1.1420000E-03   -1.4078851E-21
 -1.1415000E-03   -8.6009598E-22
 -1.1410000E-03    1.2872178E-22
 -1.1405000E-03    1.6718987E-21
 -1.1399999E-03    3.8687342E-21
 -1.1394999E-03    6.7833092E-21
 -1.1390001E-03    1.0417086E-20
 -1.1385001E-03    1.4675903E-20
 -1.1380001E-03    1.9333022E-20
 -1.1375000E-03    2.3991265E-20
 -1.1370000E-03    2.8048842E-20
 -1.1365000E-03    3.0675153E-20
 -1.1360000E-03    3.0804597E-20
 -1.1355000E-03    2.7157668E-20
 -1.1350000E-03    1.8299489E-20
 -1.1345000E-03    2.7456392E-21
 -1.1340000E-03   -2.0876367E-20
 -1.1335000E-03   -5.3605055E-20
 -1.1330000E-03   -9.5862885E-20
 -1.1325000E-03   -1.4712233E-19
 -1.1320000E-03   -2.0553847E-19
 -1.1315000E-03   -2.6757835E-19
 -1.1310000E-03   -3.2769062E-19
 -1.1305000E-03   -3.7807275E-19
 -1.1300000E-03   -4.0860419E-19
 -1.1295000E-03   -4.0702360E-19
 -1.1290000E-03   -3.5942967E-19
 -1.1285000E-03   -2.5117949E-19
 -1.1280000E-03   -6.8241147E-20
 -1.1275000E-03    2.0097308E-19
 -1.1270000E-03    5.6331310E-19
 -1.1265000E-03    1.0182167E-18
 -1.1260000E-03    1.5548091E-18
 -1.1255000E-03    2.1490165E-18
 -1.1250000E-03    2.7610187E-18
 -1.1244999E-03    3.3334545E-18
 -1.1239999E-03    3.7908583E-18
 -1.1235001E-03    4.0408389E-18
 -1.1230001E-03    3.9775195E-18
 -1.1225000E-03    3.4876759E-18
 -1.1220000E-03    2.4598842E-18
 -1.1215000E-03    7.9676456E-19
 -1.1210000E-03   -1.5698891E-18
 -1.1205000E-03   -4.6616942E-18
 -1.1200000E-03   -8.4350213E-18
 -1.1195000E-03   -1.2762612E-17
 -1.1190000E-03   -1.7417486E-17
 -1.1185000E-03   -2.2061550E-17
 -1.1180000E-03   -2.6241650E-17
 -1.1175000E-03   -2.9395862E-17
 -1.1170000E-03   -3.0872773E-17
 -1.1165000E-03   -2.9965878E-17
 -1.1160000E-03   -2.5964486E-17
 -1.1155000E-03   -1.8221250E-17
 -1.1150000E-03   -6.2347225E-18
 -1.1145000E-03    1.0256555E-17
 -1.1140000E-03    3.1174148E-17
 -1.1135000E-03    5.6002066E-17
 -1.1130000E-03    8.3701460E-17
 -1.1125000E-03    1.1264959E-16
 -1.1120000E-03    1.4061601E-16
 -1.1115000E-03    1.6478899E-16
 -1.1110000E-03    1.8186408E-16
 -1.1105000E-03    1.8820402E-16
 -1.1100000E-03    1.8007481E-16
 -1.1094999E-03    1.5395715E-16
 -1.1089999E-03    1.0692467E-16
 -1.1084999E-03    3.7072435E-17
 -1.1080001E-03   -5.6030786E-17
 -1.1075001E-03   -1.7090114E-16
 -1.1070000E-03   -3.0375255E-16
 -1.1065000E-03   -4.4821299E-16
 -1.1060000E-03   -5.9519592E-16
 -1.1055000E-03   -7.3297901E-16
 -1.1050000E-03   -8.4753360E-16
 -1.1045000E-03   -9.2313981E-16
 -1.1040000E-03   -9.4330227E-16
 -1.1035000E-03   -8.9195947E-16
 -1.1030000E-03   -7.5495337E-16
 -1.1025000E-03   -5.2169140E-16
 -1.1020000E-03   -1.8690589E-16
 -1.1015000E-03    2.4761910E-16
 -1.1010000E-03    7.7150699E-16
 -1.1005000E-03    1.3646070E-15
 -1.1000000E-03    1.9963516E-15
 -1.0995000E-03    2.6258263E-15
 -1.0990000E-03    3.2027040E-15
 -1.0985000E-03    3.6691545E-15
 -1.0980000E-03    3.9627835E-15
 -1.0975000E-03    4.0205800E-15
 -1.0970000E-03    3.7837682E-15
 -1.0965000E-03    3.2033666E-15
 -1.0960000E-03    2.2461474E-15
 -1.0955000E-03    9.0062282E-16
 -1.0950000E-03   -8.1741586E-16
 -1.0945000E-03   -2.8603212E-15
 -1.0939999E-03   -5.1455189E-15
 -1.0934999E-03   -7.5544734E-15
 -1.0930001E-03   -9.9341616E-15
 -1.0925001E-03   -1.2101435E-14
 -1.0920000E-03   -1.3850492E-14
 -1.0915000E-03   -1.4963496E-14
 -1.0910000E-03   -1.5224174E-14
 -1.0905000E-03   -1.4433956E-14
 -1.0900000E-03   -1.2429974E-14
 -1.0895000E-03   -9.1039847E-15
 -1.0890000E-03   -4.4210724E-15
 -1.0885000E-03    1.5632477E-15
 -1.0880000E-03    8.6889868E-15
 -1.0875000E-03    1.6682241E-14
 -1.0870000E-03    2.5151866E-14
 -1.0865000E-03    3.3593615E-14
 -1.0860000E-03    4.1402913E-14
 -1.0855000E-03    4.7897016E-14
 -1.0850000E-03    5.2346907E-14
 -1.0845000E-03    5.4018662E-14
 -1.0840000E-03    5.2223457E-14
 -1.0835000E-03    4.6374532E-14
 -1.0830000E-03    3.6048790E-14
 -1.0825000E-03    2.1049846E-14
 -1.0820000E-03    1.4685921E-15
 -1.0815000E-03   -2.2263314E-14
 -1.0810000E-03   -4.9332168E-14
 -1.0805000E-03   -7.8518640E-14
 -1.0800000E-03   -1.0819740E-13
 -1.0795000E-03   -1.3636516E-13
 -1.0790000E-03   -1.6070161E-13
 -1.0784999E-03   -1.7866635E-13
 -1.0779999E-03   -1.8763326E-13
 -1.0775001E-03   -1.8506118E-13
 -1.0770001E-03   -1.6869701E-13
 -1.0765000E-03   -1.3680355E-13
 -1.0760000E-03   -8.8401183E-14
 -1.0755000E-03   -2.3508190E-14
 -1.0750000E-03    5.6638999E-14
 -1.0745000E-03    1.4940731E-13
 -1.0740000E-03    2.5065423E-13
 -1.0735000E-03    3.5470536E-13
 -1.0730000E-03    4.5444508E-13
 -1.0725000E-03    5.4154099E-13
 -1.0720000E-03    6.0681424E-13
 -1.0715000E-03    6.4076218E-13
 -1.0710000E-03    6.3422450E-13
 -1.0705000E-03    5.7917343E-13
 -1.0700000E-03    4.6959165E-13
 -1.0695000E-03    3.0238502E-13
 -1.0690000E-03    7.8263310E-14
 -1.0685000E-03   -1.9749210E-13
 -1.0680000E-03   -5.1446304E-13
 -1.0675000E-03   -8.5682438E-13
 -1.0670000E-03   -1.2034578E-12
 -1.0665000E-03   -1.5285248E-12
 -1.0660000E-03   -1.8025501E-12
 -1.0655000E-03   -1.9940364E-12
 -1.0650000E-03   -2.0715881E-12
 -1.0645000E-03   -2.0064709E-12
 -1.0640000E-03   -1.7754844E-12
 -1.0634999E-03   -1.3639671E-12
 -1.0629999E-03   -7.6870839E-13
 -1.0625001E-03   -4.9675534E-16
 -1.0620001E-03    9.1398558E-13
 -1.0615001E-03    1.9312150E-12
 -1.0610000E-03    2.9910970E-12
 -1.0605000E-03    4.0186751E-12
 -1.0600000E-03    4.9274118E-12
 -1.0595000E-03    5.6240672E-12
 -1.0590000E-03    6.0150695E-12
 -1.0585000E-03    6.0141120E-12
 -1.0580000E-03    5.5505583E-12
 -1.0575000E-03    4.5780931E-12
 -1.0570000E-03    3.0829135E-12
 -1.0565000E-03    1.0906847E-12
 -1.0560000E-03   -1.3285681E-12
 -1.0555000E-03   -4.0584142E-12
 -1.0550000E-03   -6.9375027E-12
 -1.0545000E-03   -9.7650733E-12
 -1.0540000E-03   -1.2310711E-11
 -1.0535000E-03   -1.4328259E-11
 -1.0530000E-03   -1.5573372E-11
 -1.0525000E-03   -1.5823858E-11
 -1.0520000E-03   -1.4901485E-11
 -1.0515000E-03   -1.2693671E-11
 -1.0510000E-03   -9.1731319E-12
 -1.0505000E-03   -4.4135086E-12
 -1.0500000E-03    1.4010308E-12
 -1.0495000E-03    7.9739687E-12
 -1.0490000E-03    1.4903773E-11
 -1.0485000E-03    2.1701156E-11
 -1.0479999E-03    2.7816296E-11
 -1.0474999E-03    3.2675137E-11
 -1.0470001E-03    3.5723032E-11
 -1.0465001E-03    3.6473019E-11
 -1.0460000E-03    3.4555209E-11
 -1.0455000E-03    2.9763247E-11
 -1.0450000E-03    2.2093345E-11
 -1.0445000E-03    1.1771536E-11
 -1.0440000E-03   -7.3486757E-13
 -1.0435000E-03   -1.4724723E-11
 -1.0430000E-03   -2.9291295E-11
 -1.0425000E-03   -4.3371556E-11
 -1.0420000E-03   -5.5814988E-11
 -1.0415000E-03   -6.5468339E-11
 -1.0410000E-03   -7.1270941E-11
 -1.0405000E-03   -7.2353470E-11
 -1.0400000E-03   -6.8131945E-11
 -1.0395000E-03   -5.8387878E-11
 -1.0390000E-03   -4.3326051E-11
 -1.0385000E-03   -2.3601891E-11
 -1.0380000E-03   -3.1260465E-13
 -1.0375000E-03    2.5051346E-11
 -1.0370000E-03    5.0694463E-11
 -1.0365000E-03    7.4640558E-11
 -1.0360000E-03    9.4885794E-11
 -1.0355000E-03    1.0956942E-10
 -1.0350000E-03    1.1714824E-10
 -1.0345000E-03    1.1655885E-10
 -1.0340000E-03    1.0735110E-10
 -1.0335000E-03    8.9776991E-11
 -1.0329999E-03    6.4821787E-11
 -1.0324999E-03    3.4168300E-11
 -1.0319999E-03    9.0873503E-14
 -1.0315001E-03   -3.4717763E-11
 -1.0310001E-03   -6.7376507E-11
 -1.0305000E-03   -9.5085446E-11
 -1.0300000E-03   -1.1541152E-10
 -1.0295000E-03   -1.2656236E-10
 -1.0290000E-03   -1.2761811E-10
 -1.0285000E-03   -1.1869172E-10
 -1.0280000E-03   -1.0099216E-10
 -1.0275000E-03   -7.6771589E-11
 -1.0270000E-03   -4.9148272E-11
 -1.0265000E-03   -2.1808664E-11
 -1.0260000E-03    1.3938150E-12
 -1.0255000E-03    1.6912092E-11
 -1.0250000E-03    2.2007125E-11
 -1.0245000E-03    1.5224492E-11
 -1.0240000E-03   -3.2128831E-12
 -1.0235000E-03   -3.1154610E-11
 -1.0230000E-03   -6.4467529E-11
 -1.0225000E-03   -9.7214417E-11
 -1.0220000E-03   -1.2208623E-10
 -1.0215000E-03   -1.3108313E-10
 -1.0210000E-03   -1.1641076E-10
 -1.0205000E-03   -7.1529553E-11
 -1.0200000E-03    7.7334588E-12
 -1.0195000E-03    1.2212281E-10
 -1.0190000E-03    2.6807018E-10
 -1.0185000E-03    4.3711840E-10
 -1.0180000E-03    6.1577560E-10
 -1.0174999E-03    7.8589685E-10
 -1.0169999E-03    9.2565394E-10
 -1.0165001E-03    1.0111021E-09
 -1.0160001E-03    1.0182929E-09
 -1.0155000E-03    9.2581837E-10
 -1.0150000E-03    7.1760364E-10
 -1.0145000E-03    3.8571152E-10
 -1.0140000E-03   -6.7122953E-11
 -1.0135000E-03   -6.2553357E-10
 -1.0130000E-03   -1.2604389E-09
 -1.0125000E-03   -1.9291015E-09
 -1.0120000E-03   -2.5765323E-09
 -1.0115000E-03   -3.1383447E-09
 -1.0110000E-03   -3.5450418E-09
 -1.0105000E-03   -3.7275827E-09
 -1.0100000E-03   -3.6239174E-09
 -1.0095000E-03   -3.1860468E-09
 -1.0090000E-03   -2.3870299E-09
 -1.0085000E-03   -1.2272792E-09
 -1.0080000E-03    2.6056138E-10
 -1.0075000E-03    2.0088422E-09
 -1.0070000E-03    3.9148396E-09
 -1.0065000E-03    5.8438450E-09
 -1.0060000E-03    7.6356317E-09
 -1.0055000E-03    9.1142791E-09
 -1.0050000E-03    1.0100970E-08
 -1.0045000E-03    1.0429119E-08
 -1.0040000E-03    9.9608153E-09
 -1.0035000E-03    8.6033376E-09
 -1.0030000E-03    6.3242873E-09
 -1.0025000E-03    3.1637981E-09
 -1.0019999E-03   -7.5768419E-10
 -1.0014999E-03   -5.2373896E-09
 -1.0010001E-03   -9.9949977E-09
 -1.0005001E-03   -1.4684766E-08
 -1.0000000E-03   -1.8915008E-08
 -9.9950004E-04   -2.2274293E-08
 -9.9900004E-04   -2.4363050E-08
 -9.9850004E-04   -2.4828619E-08
 -9.9800003E-04   -2.3401203E-08
 -9.9750003E-04   -1.9927819E-08
 -9.9700002E-04   -1.4401036E-08
 -9.9650002E-04   -6.9793926E-09
 -9.9600002E-04    2.0033284E-09
 -9.9550001E-04    1.2042231E-08
 -9.9500001E-04    2.2480213E-08
 -9.9450001E-04    3.2541951E-08
 -9.9400000E-04    4.1382037E-08
 -9.9350000E-04    4.8144987E-08
 -9.9299999E-04    5.2033592E-08
 -9.9249999E-04    5.2380951E-08
 -9.9199999E-04    4.8720594E-08
 -9.9149998E-04    4.0848672E-08
 -9.9099998E-04    2.8872085E-08
 -9.9049998E-04    1.3236926E-08
 -9.8999997E-04   -5.2674451E-09
 -9.8949997E-04   -2.5531820E-08
 -9.8899996E-04   -4.6179295E-08
 -9.8849996E-04   -6.5645104E-08
 -9.8799996E-04   -8.2280657E-08
 -9.8749995E-04   -9.4476015E-08
 -9.8699995E-04   -1.0079271E-07
 -9.8649994E-04   -1.0009714E-07
 -9.8600006E-04   -9.1683866E-08
 -9.8550005E-04   -7.5377457E-08
 -9.8500005E-04   -5.1602552E-08
 -9.8450005E-04   -2.1412934E-08
 -9.8400004E-04    1.3526833E-08
 -9.8350004E-04    5.1010637E-08
 -9.8300003E-04    8.8410353E-08
 -9.8250003E-04    1.2284113E-07
 -9.8200003E-04    1.5136339E-07
 -9.8150002E-04    1.7120917E-07
 -9.8100002E-04    1.8001626E-07
 -9.8050002E-04    1.7605286E-07
 -9.8000001E-04    1.5841296E-07
 -9.7950001E-04    1.2716455E-07
 -9.7900000E-04    8.3434259E-08
 -9.7850000E-04    2.9415713E-08
 -9.7800000E-04   -3.1705685E-08
 -9.7749999E-04   -9.5913116E-08
 -9.7699999E-04   -1.5859841E-07
 -9.7649998E-04   -2.1486954E-07
 -9.7599998E-04   -2.5990693E-07
 -9.7549998E-04   -2.8934380E-07
 -9.7499997E-04   -2.9964306E-07
 -9.7450003E-04   -2.8843979E-07
 -9.7400002E-04   -2.5481935E-07
 -9.7350002E-04   -1.9950447E-07
 -9.7300002E-04   -1.2492863E-07
 -9.7250001E-04   -3.5181415E-08
 -9.7200001E-04    6.4179659E-08
 -9.7150001E-04    1.6644597E-07
 -9.7100000E-04    2.6418797E-07
 -9.7050000E-04    3.4977271E-07
 -9.6999999E-04    4.1593447E-07
 -9.6949999E-04    4.5635699E-07
 -9.6899999E-04    4.6622239E-07
 -9.6849998E-04    4.4268134E-07
 -9.6799998E-04    3.8520204E-07
 -9.6749997E-04    2.9576296E-07
 -9.6700003E-04    1.7886377E-07
 -9.6650003E-04    4.1342489E-08
 -9.6600002E-04   -1.0799902E-07
 -9.6550002E-04   -2.5894332E-07
 -9.6500001E-04   -4.0054681E-07
 -9.6450001E-04   -5.2192462E-07
 -9.6400001E-04   -6.1307458E-07
 -9.6350000E-04   -6.6567867E-07
 -9.6300000E-04   -6.7381785E-07
 -9.6249999E-04   -6.3453945E-07
 -9.6199999E-04   -5.4822686E-07
 -9.6149999E-04   -4.1873145E-07
 -9.6099998E-04   -2.5324616E-07
 -9.6049998E-04   -6.1919138E-08
 -9.5999998E-04    1.4277505E-07
 -9.5949997E-04    3.4686678E-07
 -9.5900003E-04    5.3586928E-07
 -9.5850002E-04    6.9583263E-07
 -9.5800002E-04    8.1439424E-07
 -9.5750001E-04    8.8174460E-07
 -9.5700001E-04    8.9142924E-07
 -9.5650001E-04    8.4092085E-07
 -9.5600000E-04    7.3190938E-07
 -9.5550000E-04    5.7027967E-07
 -9.5500000E-04    3.6577288E-07
 -9.5449999E-04    1.3134883E-07
 -9.5399999E-04   -1.1770484E-07
 -9.5349998E-04   -3.6485167E-07
 -9.5299998E-04   -5.9349168E-07
 -9.5249998E-04   -7.8816026E-07
 -9.5199997E-04   -9.3564688E-07
 -9.5150003E-04   -1.0259440E-06
 -9.5100002E-04   -1.0529512E-06
 -9.5050002E-04   -1.0148785E-06
 -9.5000002E-04   -9.1431752E-07
 -9.4950001E-04   -7.5797897E-07
 -9.4900001E-04   -5.5612134E-07
 -9.4850000E-04   -3.2172278E-07
 -9.4800000E-04   -6.9470957E-08
 -9.4750000E-04    1.8534082E-07
 -9.4699999E-04    4.2791416E-07
 -9.4649999E-04    6.4494827E-07
 -9.4599999E-04    8.2546217E-07
 -9.4549998E-04    9.6136932E-07
 -9.4499998E-04    1.0477683E-06
 -9.4449997E-04    1.0829357E-06
 -9.4400003E-04    1.0680442E-06
 -9.4350002E-04    1.0066519E-06
 -9.4300002E-04    9.0403580E-07
 -9.4250002E-04    7.6645682E-07
 -9.4200001E-04    6.0045176E-07
 -9.4150001E-04    4.1224010E-07
 -9.4100001E-04    2.0732320E-07
 -9.4050000E-04   -9.6724353E-09
 -9.4000000E-04   -2.3488849E-07
 -9.3949999E-04   -4.6487804E-07
 -9.3899999E-04   -6.9604982E-07
 -9.3849999E-04   -9.2399586E-07
 -9.3799998E-04   -1.1428103E-06
 -9.3749998E-04   -1.3445193E-06
 -9.3699998E-04   -1.5187453E-06
 -9.3649997E-04   -1.6527113E-06
 -9.3600003E-04   -1.7316648E-06
 -9.3550002E-04   -1.7397580E-06
 -9.3500002E-04   -1.6613692E-06
 -9.3450001E-04   -1.4827980E-06
 -9.3400001E-04   -1.1942050E-06
 -9.3350001E-04   -7.9162362E-07
 -9.3300000E-04   -2.7883291E-07
 -9.3250000E-04    3.3114054E-07
 -9.3200000E-04    1.0151166E-06
 -9.3149999E-04    1.7396545E-06
 -9.3099999E-04    2.4618921E-06
 -9.3049998E-04    3.1314094E-06
 -9.2999998E-04    3.6931071E-06
 -9.2949998E-04    4.0909836E-06
 -9.2899997E-04    4.2726033E-06
 -9.2850003E-04    4.1939438E-06
 -9.2800002E-04    3.8242465E-06
 -9.2750002E-04    3.1504312E-06
 -9.2700002E-04    2.1806386E-06
 -9.2650001E-04    9.4646458E-07
 -9.2600001E-04   -4.9646042E-07
 -9.2550000E-04   -2.0698060E-06
 -9.2500000E-04   -3.6759070E-06
 -9.2450000E-04   -5.2031082E-06
 -9.2399999E-04   -6.5328663E-06
 -9.2349999E-04   -7.5482167E-06
 -9.2299999E-04   -8.1430380E-06
 -9.2249998E-04   -8.2314464E-06
 -9.2199998E-04   -7.7565537E-06
 -9.2149997E-04   -6.6978091E-06
 -9.2100003E-04   -5.0761914E-06
 -9.2050002E-04   -2.9566190E-06
 -9.2000002E-04   -4.4712473E-07
 -9.1950002E-04    2.3054365E-06
 -9.1900001E-04    5.1231141E-06
 -9.1850001E-04    7.8077010E-06
 -9.1800001E-04    1.0154097E-05
 -9.1750000E-04    1.1965336E-05
 -9.1700000E-04    1.3068220E-05
 -9.1649999E-04    1.3328388E-05
 -9.1599999E-04    1.2663553E-05
 -9.1549999E-04    1.1053756E-05
 -9.1499998E-04    8.5475758E-06
 -9.1449998E-04    5.2635310E-06
 -9.1399997E-04    1.3861945E-06
 -9.1349997E-04   -2.8430345E-06
 -9.1300003E-04   -7.1401669E-06
 -9.1250002E-04   -1.1197091E-05
 -9.1200002E-04   -1.4703124E-05
 -9.1150001E-04   -1.7368169E-05
 -9.1100001E-04   -1.8945799E-05
 -9.1050001E-04   -1.9254468E-05
 -9.1000000E-04   -1.8195091E-05
 -9.0950000E-04   -1.5763439E-05
 -9.0899999E-04   -1.2056069E-05
 -9.0849999E-04   -7.2689763E-06
 -9.0799999E-04   -1.6886560E-06
 -9.0749998E-04    4.3241566E-06
 -9.0699998E-04    1.0357215E-05
 -9.0649998E-04    1.5974565E-05
 -9.0599997E-04    2.0747568E-05
 -9.0550003E-04    2.4286925E-05
 -9.0500002E-04    2.6273357E-05
 -9.0450002E-04    2.6484508E-05
 -9.0400001E-04    2.4815879E-05
 -9.0350001E-04    2.1293970E-05
 -9.0300001E-04    1.6080239E-05
 -9.0250000E-04    9.4652651E-06
 -9.0200000E-04    1.8531043E-06
 -9.0150000E-04   -6.2633571E-06
 -9.0099999E-04   -1.4334540E-05
 -9.0049999E-04   -2.1791679E-05
 -8.9999998E-04   -2.8087083E-05
 -8.9949998E-04   -3.2734250E-05
 -8.9899998E-04   -3.5344823E-05
 -8.9849997E-04   -3.5659596E-05
 -8.9800003E-04   -3.3571014E-05
 -8.9750002E-04   -2.9135354E-05
 -8.9700002E-04   -2.2573366E-05
 -8.9650002E-04   -1.4259052E-05
 -8.9600001E-04   -4.6971718E-06
 -8.9550001E-04    5.5091646E-06
 -8.9500000E-04    1.5698552E-05
 -8.9450000E-04    2.5196252E-05
 -8.9400000E-04    3.3360804E-05
 -8.9349999E-04    3.9628911E-05
 -8.9299999E-04    4.3555279E-05
 -8.9249999E-04    4.4844521E-05
 -8.9199998E-04    4.3372602E-05
 -8.9149998E-04    3.9196391E-05
 -8.9099997E-04    3.2550397E-05
 -8.9050003E-04    2.3831100E-05
 -8.9000002E-04    1.3569871E-05
 -8.8950002E-04    2.3966529E-06
 -8.8900002E-04   -9.0029998E-06
 -8.8850001E-04   -1.9934267E-05
 -8.8800001E-04   -2.9739402E-05
 -8.8750001E-04   -3.7840673E-05
 -8.8700000E-04   -4.3776814E-05
 -8.8650000E-04   -4.7230511E-05
 -8.8599999E-04   -4.8045047E-05
 -8.8549999E-04   -4.6229274E-05
 -8.8499999E-04   -4.1950858E-05
 -8.8449998E-04   -3.5518784E-05
 -8.8399998E-04   -2.7356800E-05
 -8.8349998E-04   -1.7970238E-05
 -8.8299997E-04   -7.9090742E-06
 -8.8250003E-04    2.2698132E-06
 -8.8200002E-04    1.2038163E-05
 -8.8150002E-04    2.0927020E-05
 -8.8100001E-04    2.8550508E-05
 -8.8050001E-04    3.4621306E-05
 -8.8000001E-04    3.8957227E-05
 -8.7950000E-04    4.1479205E-05
 -8.7900000E-04    4.2201711E-05
 -8.7850000E-04    4.1217292E-05
 -8.7799999E-04    3.8677394E-05
 -8.7749999E-04    3.4771885E-05
 -8.7699998E-04    2.9709652E-05
 -8.7649998E-04    2.3702376E-05
 -8.7599998E-04    1.6953141E-05
 -8.7549997E-04    9.6508447E-06
 -8.7500003E-04    1.9705983E-06
 -8.7450002E-04   -5.9204463E-06
 -8.7400002E-04   -1.3853190E-05
 -8.7350002E-04   -2.1644531E-05
 -8.7300001E-04   -2.9085479E-05
 -8.7250001E-04   -3.5931946E-05
 -8.7200000E-04   -4.1900526E-05
 -8.7150000E-04   -4.6671212E-05
 -8.7100000E-04   -4.9898259E-05
 -8.7049999E-04   -5.1229614E-05
 -8.6999999E-04   -5.0334234E-05
 -8.6949999E-04   -4.6935664E-05
 -8.6899998E-04   -4.0849201E-05
 -8.6849998E-04   -3.2019321E-05
 -8.6799997E-04   -2.0553367E-05
 -8.6750003E-04   -6.7474439E-06
 -8.6700002E-04    8.8993847E-06
 -8.6650002E-04    2.5685877E-05
 -8.6600002E-04    4.2726682E-05
 -8.6550001E-04    5.8988673E-05
 -8.6500001E-04    7.3345022E-05
 -8.6450001E-04    8.4644831E-05
 -8.6400000E-04    9.1794558E-05
 -8.6350000E-04    9.3845898E-05
 -8.6299999E-04    9.0083893E-05
 -8.6249999E-04    8.0108061E-05
 -8.6199999E-04    6.3899337E-05
 -8.6149998E-04    4.1865998E-05
 -8.6099998E-04    1.4862651E-05
 -8.6049997E-04   -1.5821894E-05
 -8.5999997E-04   -4.8510185E-05
 -8.5950003E-04   -8.1214886E-05
 -8.5900002E-04   -1.1174804E-04
 -8.5850002E-04   -1.3785550E-04
 -8.5800001E-04   -1.5736872E-04
 -8.5750001E-04   -1.6836450E-04
 -8.5700001E-04   -1.6932127E-04
 -8.5650000E-04   -1.5926066E-04
 -8.5600000E-04   -1.3786252E-04
 -8.5549999E-04   -1.0554308E-04
 -8.5499999E-04   -6.3487852E-05
 -8.5449999E-04   -1.3633270E-05
 -8.5399998E-04    4.1405496E-05
 -8.5349998E-04    9.8459219E-05
 -8.5299998E-04    1.5397705E-04
 -8.5249997E-04    2.0423769E-04
 -8.5200003E-04    2.4558770E-04
 -8.5150002E-04    2.7469144E-04
 -8.5100002E-04    2.8877702E-04
 -8.5050002E-04    2.8585992E-04
 -8.5000001E-04    2.6492850E-04
 -8.4950001E-04    2.2607535E-04
 -8.4900000E-04    1.7056265E-04
 -8.4850000E-04    1.0081287E-04
 -8.4800000E-04    2.0321046E-05
 -8.4749999E-04   -6.6510045E-05
 -8.4699999E-04   -1.5460499E-04
 -8.4649998E-04   -2.3850928E-04
 -8.4599998E-04   -3.1272470E-04
 -8.4549998E-04   -3.7206622E-04
 -8.4499997E-04   -4.1201737E-04
 -8.4450003E-04   -4.2906063E-04
 -8.4400002E-04   -4.2095874E-04
 -8.4350002E-04   -3.8696610E-04
 -8.4300002E-04   -3.2795250E-04
 -8.4250001E-04   -2.4642606E-04
 -8.4200001E-04   -1.4644991E-04
 -8.4150000E-04   -3.3452099E-05
 -8.4100000E-04    8.6063163E-05
 -8.4050000E-04    2.0488836E-04
 -8.3999999E-04    3.1554894E-04
 -8.3949999E-04    4.1077653E-04
 -8.3899999E-04    4.8398969E-04
 -8.3849998E-04    5.2975042E-04
 -8.3799998E-04    5.4416532E-04
 -8.3749997E-04    5.2520167E-04
 -8.3700003E-04    4.7289545E-04
 -8.3650002E-04    3.8943105E-04
 -8.3600002E-04    2.7908367E-04
 -8.3550002E-04    1.4802201E-04
 -8.3500001E-04    3.9785118E-06
 -8.3450001E-04   -1.4419579E-04
 -8.3400001E-04   -2.8706715E-04
 -8.3350000E-04   -4.1521370E-04
 -8.3300000E-04   -5.1984156E-04
 -8.3249999E-04   -5.9338263E-04
 -8.3199999E-04   -6.3003373E-04
 -8.3149999E-04   -6.2619947E-04
 -8.3099998E-04   -5.8080570E-04
 -8.3049998E-04   -4.9545878E-04
 -8.2999998E-04   -3.7443422E-04
 -8.2949997E-04   -2.2448957E-04
 -8.2900003E-04   -5.4508182E-05
 -8.2850002E-04    1.2500864E-04
 -8.2800002E-04    3.0257247E-04
 -8.2750001E-04    4.6642442E-04
 -8.2700001E-04    6.0529256E-04
 -8.2650001E-04    7.0914248E-04
 -8.2600000E-04    7.6987065E-04
 -8.2550000E-04    7.8189361E-04
 -8.2500000E-04    7.4259192E-04
 -8.2449999E-04    6.5257418E-04
 -8.2399999E-04    5.1574019E-04
 -8.2349998E-04    3.3913291E-04
 -8.2299998E-04    1.3258246E-04
 -8.2249998E-04   -9.1838861E-05
 -8.2199997E-04   -3.2052101E-04
 -8.2150003E-04   -5.3913810E-04
 -8.2100002E-04   -7.3353754E-04
 -8.2050002E-04   -8.9064025E-04
 -8.2000002E-04   -9.9929515E-04
 -8.1950001E-04   -1.0510307E-03
 -8.1900001E-04   -1.0406552E-03
 -8.1850000E-04   -9.6666196E-04
 -8.1800000E-04   -8.3141285E-04
 -8.1750000E-04   -6.4108201E-04
 -8.1699999E-04   -4.0536126E-04
 -8.1649999E-04   -1.3694099E-04
 -8.1599999E-04    1.4920335E-04
 -8.1549998E-04    4.3667731E-04
 -8.1499998E-04    7.0863368E-04
 -8.1449997E-04    9.4878016E-04
 -8.1400003E-04    1.1423650E-03
 -8.1350002E-04    1.2770828E-03
 -8.1300002E-04    1.3438392E-03
 -8.1250002E-04    1.3373322E-03
 -8.1200001E-04    1.2564104E-03
 -8.1150001E-04    1.1041864E-03
 -8.1100001E-04    8.8789948E-04
 -8.1050000E-04    6.1853428E-04
 -8.1000000E-04    3.1021843E-04
 -8.0949999E-04   -2.0562817E-05
 -8.0899999E-04   -3.5589052E-04
 -8.0849999E-04   -6.7741744E-04
 -8.0799998E-04   -9.6739776E-04
 -8.0749998E-04   -1.2096801E-03
 -8.0699997E-04   -1.3906085E-03
 -8.0649997E-04   -1.4997800E-03
 -8.0600003E-04   -1.5306197E-03
 -8.0550002E-04   -1.4807415E-03
 -8.0500002E-04   -1.3520796E-03
 -8.0450001E-04   -1.1507856E-03
 -8.0400001E-04   -8.8690169E-04
 -8.0350001E-04   -5.7383068E-04
 -8.0300000E-04   -2.2763398E-04
 -8.0250000E-04    1.3380231E-04
 -8.0200000E-04    4.9168826E-04
 -8.0149999E-04    8.2729047E-04
 -8.0099999E-04    1.1228829E-03
 -8.0049998E-04    1.3626427E-03
 -7.9999998E-04    1.5334487E-03
 -7.9949998E-04    1.6255474E-03
 -7.9899997E-04    1.6330559E-03
 -7.9850003E-04    1.5542835E-03
 -7.9800002E-04    1.3918570E-03
 -7.9750002E-04    1.1526473E-03
 -7.9700002E-04    8.4749924E-04
 -7.9650001E-04    4.9077801E-04
 -7.9600001E-04    9.9748810E-05
 -7.9550000E-04   -3.0618708E-04
 -7.9500000E-04   -7.0636842E-04
 -7.9450000E-04   -1.0798308E-03
 -7.9399999E-04   -1.4063051E-03
 -7.9349999E-04   -1.6672190E-03
 -7.9299998E-04   -1.8466575E-03
 -7.9249998E-04   -1.9322432E-03
 -7.9199998E-04   -1.9158897E-03
 -7.9149997E-04   -1.7943908E-03
 -7.9100003E-04   -1.5698090E-03
 -7.9050002E-04   -1.2496305E-03
 -7.9000002E-04   -8.4666471E-04
 -7.8950002E-04   -3.7867550E-04
 -7.8900001E-04    1.3226055E-04
 -7.8850001E-04    6.6065474E-04
 -7.8800000E-04    1.1787423E-03
 -7.8750000E-04    1.6578131E-03
 -7.8700000E-04    2.0696826E-03
 -7.8649999E-04    2.3882361E-03
 -7.8599999E-04    2.5909685E-03
 -7.8549999E-04    2.6604338E-03
 -7.8499998E-04    2.5855177E-03
 -7.8449998E-04    2.3624492E-03
 -7.8399997E-04    1.9954680E-03
 -7.8350003E-04    1.4970885E-03
 -7.8300002E-04    8.8791084E-04
 -7.8250002E-04    1.9595701E-04
 -7.8200002E-04   -5.4446509E-04
 -7.8150001E-04   -1.2943370E-03
 -7.8100001E-04   -2.0118817E-03
 -7.8050001E-04   -2.6548044E-03
 -7.8000000E-04   -3.1827067E-03
 -7.7950000E-04   -3.5595389E-03
 -7.7899999E-04   -3.7559506E-03
 -7.7849999E-04   -3.7513832E-03
 -7.7799999E-04   -3.5357671E-03
 -7.7749998E-04   -3.1106919E-03
 -7.7699998E-04   -2.4899486E-03
 -7.7649998E-04   -1.6993696E-03
 -7.7599997E-04   -7.7593984E-04
 -7.7550003E-04    2.3381108E-04
 -7.7500002E-04    1.2760767E-03
 -7.7450002E-04    2.2925960E-03
 -7.7400001E-04    3.2238900E-03
 -7.7350001E-04    4.0127276E-03
 -7.7300001E-04    4.6076300E-03
 -7.7250000E-04    4.9661850E-03
 -7.7200000E-04    5.0579738E-03
 -7.7150000E-04    4.8668971E-03
 -7.7099999E-04    4.3927403E-03
 -7.7049999E-04    3.6518390E-03
 -7.6999998E-04    2.6767731E-03
 -7.6949998E-04    1.5150622E-03
 -7.6899998E-04    2.2690304E-04
 -7.6849997E-04   -1.1179491E-03
 -7.6800003E-04   -2.4439951E-03
 -7.6750002E-04   -3.6742936E-03
 -7.6700002E-04   -4.7350023E-03
 -7.6650002E-04   -5.5598849E-03
 -7.6600001E-04   -6.0945097E-03
 -7.6550001E-04   -6.2998626E-03
 -7.6500000E-04   -6.1551360E-03
 -7.6450000E-04   -5.6595015E-03
 -7.6400000E-04   -4.8327092E-03
 -7.6349999E-04   -3.7144655E-03
 -7.6299999E-04   -2.3625682E-03
 -7.6249999E-04   -8.4989815E-04
 -7.6199998E-04    7.3958718E-04
 -7.6149998E-04    2.3156339E-03
 -7.6099997E-04    3.7869695E-03
 -7.6050003E-04    5.0667655E-03
 -7.6000002E-04    6.0779490E-03
 -7.5950002E-04    6.7580352E-03
 -7.5900002E-04    7.0631625E-03
 -7.5850001E-04    6.9710752E-03
 -7.5800001E-04    6.4828354E-03
 -7.5750001E-04    5.6231394E-03
 -7.5700000E-04    4.4391882E-03
 -7.5650000E-04    2.9981569E-03
 -7.5599999E-04    1.3833930E-03
 -7.5549999E-04   -3.1044375E-04
 -7.5499999E-04   -1.9830116E-03
 -7.5449998E-04   -3.5343547E-03
 -7.5399998E-04   -4.8710327E-03
 -7.5349997E-04   -5.9119328E-03
 -7.5299997E-04   -6.5934001E-03
 -7.5250003E-04   -6.8733445E-03
 -7.5200002E-04   -6.7340648E-03
 -7.5150002E-04   -6.1835870E-03
 -7.5100001E-04   -5.2554151E-03
 -7.5050001E-04   -4.0066838E-03
 -7.5000001E-04   -2.5148161E-03
 -7.4950000E-04   -8.7286852E-04
 -7.4900000E-04    8.1616023E-04
 -7.4850000E-04    2.4457071E-03
 -7.4799999E-04    3.9123218E-03
 -7.4749999E-04    5.1222239E-03
 -7.4699998E-04    5.9973276E-03
 -7.4649998E-04    6.4803478E-03
 -7.4599998E-04    6.5386537E-03