 -1.2000001E-03    1.0000000E-24
 -1.1995001E-03    1.0000000E-24
 -1.1990000E-03    1.0000000E-24
 -1.1985000E-03    1.0000000E-24
 -1.1980000E-03    1.0000000E-24
 -1.1975000E-03    1.0000000E-24
 -1.1970000E-03    1.0000000E-24
 -1.1965000E-03    1.0000000E-24
 -1.1960000E-03    1.0000001E-24
 -1.1955000E-03    1.0000001E-24
 -1.1950000E-03    1.0000001E-24
 -1.1945000E-03    1.0000001E-24
 -1.1940000E-03    1.0000001E-24
 -1.1935000E-03    1.0000001E-24
 -1.1930000E-03    1.0000001E-24
 -1.1925000E-03    1.0000001E-24
 -1.1920000E-03    1.0000001E-24
 -1.1915000E-03    1.0000001E-24
 -1.1910000E-03    1.0000001E-24
 -1.1905000E-03    1.0000001E-24
 -1.1900000E-03    1.0000001E-24
 -1.1895000E-03    1.0000001E-24
 -1.1890000E-03    1.0000001E-24
 -1.1885000E-03    1.0000001E-24
 -1.1880000E-03    1.0000001E-24
 -1.1875000E-03    1.0000001E-24
 -1.1870000E-03    1.0000002E-24
 -1.1865000E-03    1.0000002E-24
 -1.1860000E-03    1.0000002E-24
 -1.1854999E-03    1.0000002E-24
 -1.1849999E-03    1.0000002E-24
 -1.1845001E-03    1.0000002E-24
 -1.1840001E-03    1.0000002E-24
 -1.1835000E-03    1.0000002E-24
 -1.1830000E-03    1.0000002E-24
 -1.1825000E-03    1.0000002E-24
 -1.1820000E-03    1.0000002E-24
 -1.1815000E-03    1.0000001E-24
 -1.1810000E-03    1.0000001E-24
 -1.1805000E-03    1.0000001E-24
 -1.1800000E-03    1.0000001E-24
 -1.1795000E-03    1.0000001E-24
 -1.1790000E-03    1.0000001E-24
 -1.1785000E-03    1.0000001E-24
 -1.1780000E-03    1.0000001E-24
 -1.1775000E-03    1.0000001E-24
 -1.1770000E-03    1.0000001E-24
 -1.1765000E-03    1.0000001E-24
 -1.1760000E-03    1.0000001E-24
 -1.1755000E-03    1.0000001E-24
 -1.1750000E-03    1.0000001E-24
 -1.1745000E-03    1.0000001E-24
 -1.1740000E-03    1.0000001E-24
 -1.1735000E-03    1.0000001E-24
 -1.1730000E-03    1.0000001E-24
 -1.1725000E-03    1.0000001E-24
 -1.1720000E-03    1.0000001E-24
 -1.1715000E-03    1.0000001E-24
 -1.1710000E-03    1.0000001E-24
 -1.1704999E-03    1.0000001E-24
 -1.1699999E-03    1.0000001E-24
 -1.1695001E-03    1.0000001E-24
 -1.1690001E-03    1.0000001E-24
 -1.1685000E-03    1.0000001E-24
 -1.1680000E-03    1.0000001E-24
 -1.1675000E-03    1.0000001E-24
 -1.1670000E-03    1.0000001E-24
 -1.1665000E-03    1.0000001E-24
 -1.1660000E-03    1.0000001E-24
 -1.1655000E-03    1.0000001E-24
 -1.1650000E-03    1.0000001E-24
 -1.1645000E-03    1.0000001E-24
 -1.1640000E-03    1.0000001E-24
 -1.1635000E-03    1.0000001E-24
 -1.1630000E-03    1.0000001E-24
 -1.1625000E-03    1.0000001E-24
 -1.1620000E-03    1.0000001E-24
 -1.1615000E-03    1.0000001E-24
 -1.1610000E-03    1.0000001E-24
 -1.1605000E-03    1.0000002E-24
 -1.1600000E-03    1.0000003E-24
 -1.1595000E-03    1.0000003E-24
 -1.1590000E-03    1.0000003E-24
 -1.1585000E-03    1.0000004E-24
 -1.1580000E-03    1.0000005E-24
 -1.1575000E-03    1.0000006E-24
 -1.1570000E-03    1.0000007E-24
 -1.1565000E-03    1.0000009E-24
 -1.1560000E-03    1.0000011E-24
 -1.1555000E-03    1.0000014E-24
 -1.1549999E-03    1.0000018E-24
 -1.1544999E-03    1.0000022E-24
 -1.1540001E-03    1.0000026E-24
 -1.1535001E-03    1.0000028E-24
 -1.1530000E-03    1.0000025E-24
 -1.1525000E-03    1.0000014E-24
 -1.1520000E-03    9.9999893E-25
 -1.1515000E-03    9.9999440E-25
 -1.1510000E-03    9.9998700E-25
 -1.1505000E-03    9.9997556E-25
 -1.1500000E-03    9.9995900E-25
 -1.1495000E-03    9.9993642E-25
 -1.1490000E-03    9.9990733E-25
 -1.1485000E-03    9.9987222E-25
 -1.1480000E-03    9.9983337E-25
 -1.1475000E-03    9.9979551E-25
 -1.1470000E-03    9.9976721E-25
 -1.1465000E-03    9.9976218E-25
 -1.1460000E-03    9.9980034E-25
 -1.1455000E-03    9.9990900E-25
 -1.1450000E-03    1.0001235E-24
 -1.1445000E-03    1.0004860E-24
 -1.1440000E-03    1.0010433E-24
 -1.1435000E-03    1.0018414E-24
 -1.1430000E-03    1.0029166E-24
 -1.1425000E-03    1.0042819E-24
 -1.1420000E-03    1.0059074E-24
 -1.1415000E-03    1.0076965E-24
 -1.1410000E-03    1.0094550E-24
 -1.1405000E-03    1.0108577E-24
 -1.1399999E-03    1.0114140E-24
 -1.1394999E-03    1.0104394E-24
 -1.1390001E-03    1.0070393E-24
 -1.1385001E-03    1.0001189E-24
 -1.1380001E-03    9.8843049E-25
 -1.1375000E-03    9.7067648E-25
 -1.1370000E-03    9.4568566E-25
 -1.1365000E-03    9.1267864E-25
 -1.1360000E-03    8.7163569E-25
 -1.1355000E-03    8.2377091E-25
 -1.1350000E-03    7.7210190E-25
 -1.1345000E-03    7.2208452E-25
 -1.1340000E-03    6.8225345E-25
 -1.1335000E-03    6.6477565E-25
 -1.1330000E-03    6.8578356E-25
 -1.1325000E-03    7.6531429E-25
 -1.1320000E-03    9.2664256E-25
 -1.1315000E-03    1.1947683E-24
 -1.1310000E-03    1.5938118E-24
 -1.1305000E-03    2.1430974E-24
 -1.1300000E-03    2.8517736E-24
 -1.1295000E-03    3.7119487E-24
 -1.1290000E-03    4.6905168E-24
 -1.1285000E-03    5.7201275E-24
 -1.1280000E-03    6.6900943E-24
 -1.1275000E-03    7.4384614E-24
 -1.1270000E-03    7.7468926E-24
 -1.1265000E-03    7.3404982E-24
 -1.1260000E-03    5.8950940E-24
 -1.1255000E-03    3.0546069E-24
 -1.1250000E-03   -1.5386840E-24
 -1.1244999E-03   -8.1987876E-24
 -1.1239999E-03   -1.7134138E-23
 -1.1235001E-03   -2.8369335E-23
 -1.1230001E-03   -4.1652771E-23
 -1.1225000E-03   -5.6355295E-23
 -1.1220000E-03   -7.1368581E-23
 -1.1215000E-03   -8.5015843E-23
 -1.1210000E-03   -9.4991715E-23
 -1.1205000E-03   -9.8351959E-23
 -1.1200000E-03   -9.1576622E-23
 -1.1195000E-03   -7.0731629E-23
 -1.1190000E-03   -3.1752491E-23
 -1.1185000E-03    2.9130854E-23
 -1.1180000E-03    1.1481796E-22
 -1.1175000E-03    2.2661462E-22
 -1.1170000E-03    3.6338561E-22
 -1.1165000E-03    5.2063144E-22
 -1.1160000E-03    6.8956571E-22
 -1.1155000E-03    8.5630157E-22
 -1.1150000E-03    1.0012856E-21
 -1.1145000E-03    1.0991476E-21
 -1.1140000E-03    1.1191498E-21
 -1.1135000E-03    1.0264255E-21
 -1.1130000E-03    7.8418105E-22
 -1.1125000E-03    3.5699124E-22
 -1.1120000E-03   -2.8475440E-22
 -1.1115000E-03   -1.1593058E-21
 -1.1110000E-03   -2.2671011E-21
 -1.1105000E-03   -3.5837786E-21
 -1.1100000E-03   -5.0532209E-21
 -1.1094999E-03   -6.5814044E-21
 -1.1089999E-03   -8.0320263E-21
 -1.1084999E-03   -9.2250365E-21
 -1.1080001E-03   -9.9393037E-21
 -1.1075001E-03   -9.9206227E-21
 -1.1070000E-03   -8.8961288E-21
 -1.1065000E-03   -6.5958800E-21
 -1.1060000E-03   -2.7818480E-21
 -1.1055000E-03    2.7161400E-21
 -1.1050000E-03    9.9588539E-21
 -1.1045000E-03    1.8852936E-20
 -1.1040000E-03    2.9106541E-20
 -1.1035000E-03    4.0190095E-20
 -1.1030000E-03    5.1307939E-20
 -1.1025000E-03    6.1387400E-20
 -1.1020000E-03    6.9092199E-20
 -1.1015000E-03    7.2866889E-20
 -1.1010000E-03    7.1017824E-20
 -1.1005000E-03    6.1834420E-20
 -1.1000000E-03    4.3751392E-20
 -1.0995000E-03    1.5548721E-20
 -1.0990000E-03   -2.3418659E-20
 -1.0985000E-03   -7.2975017E-20
 -1.0980000E-03   -1.3188115E-19
 -1.0975000E-03   -1.9761988E-19
 -1.0970000E-03   -2.6623935E-19
 -1.0965000E-03   -3.3228703E-19
 -1.0960000E-03   -3.8886854E-19
 -1.0955000E-03   -4.2786209E-19
 -1.0950000E-03   -4.4031475E-19
 -1.0945000E-03   -4.1703526E-19
 -1.0939999E-03   -3.4938346E-19
 -1.0934999E-03   -2.3023812E-19
 -1.0930001E-03   -5.5101370E-20
 -1.0925001E-03    1.7672657E-19
 -1.0920000E-03    4.6099355E-19
 -1.0915000E-03    7.8747791E-19
 -1.0910000E-03    1.1392415E-18
 -1.0905000E-03    1.4922967E-18
 -1.0900000E-03    1.8158337E-18
 -1.0895000E-03    2.0731375E-18
 -1.0890000E-03    2.2232958E-18
 -1.0885000E-03    2.2237502E-18
 -1.0880000E-03    2.0336790E-18
 -1.0875000E-03    1.6181171E-18
 -1.0870000E-03    9.5262793E-19
 -1.0865000E-03    2.8241083E-20
 -1.0860000E-03   -1.1437270E-18
 -1.0855000E-03   -2.5274375E-18
 -1.0850000E-03   -4.0594137E-18
 -1.0845000E-03   -5.6471058E-18
 -1.0840000E-03   -7.1696864E-18
 -1.0835000E-03   -8.4815518E-18
 -1.0830000E-03   -9.4188873E-18
 -1.0825000E-03   -9.8094364E-18
 -1.0820000E-03   -9.4853926E-18
 -1.0815000E-03   -8.2989997E-18
 -1.0810000E-03   -6.1401220E-18
 -1.0805000E-03   -2.9546960E-18
 -1.0800000E-03    1.2373706E-18
 -1.0795000E-03    6.3265470E-18
 -1.0790000E-03    1.2102175E-17
 -1.0784999E-03    1.8247070E-17
 -1.0779999E-03    2.4340074E-17
 -1.0775001E-03    2.9868142E-17
 -1.0770001E-03    3.4249023E-17
 -1.0765000E-03    3.6864919E-17
 -1.0760000E-03    3.7106647E-17
 -1.0755000E-03    3.4426724E-17
 -1.0750000E-03    2.8398801E-17
 -1.0745000E-03    1.8779640E-17
 -1.0740000E-03    5.5689074E-18
 -1.0735000E-03   -1.0938835E-17
 -1.0730000E-03   -3.0115992E-17
 -1.0725000E-03   -5.0983840E-17
 -1.0720000E-03   -7.2220107E-17
 -1.0715000E-03   -9.2196969E-17
 -1.0710000E-03   -1.0905236E-16
 -1.0705000E-03   -1.2079541E-16
 -1.0700000E-03   -1.2544402E-16
 -1.0695000E-03   -1.2118936E-16
 -1.0690000E-03   -1.0657889E-16
 -1.0685000E-03   -8.0706226E-17
 -1.0680000E-03   -4.3393213E-17
 -1.0675000E-03    4.6523781E-18
 -1.0670000E-03    6.1721597E-17
 -1.0665000E-03    1.2504919E-16
 -1.0660000E-03    1.9083475E-16
 -1.0655000E-03    2.5435296E-16
 -1.0650000E-03    3.1016078E-16
 -1.0645000E-03    3.5240260E-16
 -1.0640000E-03    3.7520651E-16
 -1.0634999E-03    3.7315621E-16
 -1.0629999E-03    3.4181348E-16
 -1.0625001E-03    2.7825752E-16
 -1.0620001E-03    1.8160024E-16
 -1.0615001E-03    5.3429938E-17
 -1.0610000E-03   -1.0186532E-16
 -1.0605000E-03   -2.7694383E-16
 -1.0600000E-03   -4.6156885E-16
 -1.0595000E-03   -6.4291368E-16
 -1.0590000E-03   -8.0613216E-16
 -1.0585000E-03   -9.3519669E-16
 -1.0580000E-03   -1.0139816E-15
 -1.0575000E-03   -1.0275482E-15
 -1.0570000E-03   -9.6356223E-16
 -1.0565000E-03   -8.1374974E-16
 -1.0560000E-03   -5.7528021E-16
 -1.0555000E-03   -2.5194982E-16
 -1.0550000E-03    1.4496871E-16
 -1.0545000E-03    5.9633819E-16
 -1.0540000E-03    1.0753458E-15
 -1.0535000E-03    1.5483561E-15
 -1.0530000E-03    1.9764760E-15
 -1.0525000E-03    2.3178296E-15
 -1.0520000E-03    2.5304817E-15
 -1.0515000E-03    2.5758825E-15
 -1.0510000E-03    2.4226421E-15
 -1.0505000E-03    2.0503767E-15
 -1.0500000E-03    1.4533204E-15
 -1.0495000E-03    6.4335562E-16
 -1.0490000E-03   -3.4789782E-16
 -1.0485000E-03   -1.4682825E-15
 -1.0479999E-03   -2.6458959E-15
 -1.0474999E-03   -3.7916998E-15
 -1.0470001E-03   -4.8040617E-15
 -1.0465001E-03   -5.5751937E-15
 -1.0460000E-03   -5.9992959E-15
 -1.0455000E-03   -5.9820186E-15
 -1.0450000E-03   -5.4506740E-15
 -1.0445000E-03   -4.3644588E-15
 -1.0440000E-03   -2.7237979E-15
 -1.0435000E-03   -5.7782830E-16
 -1.0430000E-03    1.9709851E-15
 -1.0425000E-03    4.7660613E-15
 -1.0420000E-03    7.6005486E-15
 -1.0415000E-03    1.0226371E-14
 -1.0410000E-03    1.2368674E-14
 -1.0405000E-03    1.3745462E-14
 -1.0400000E-03    1.4091680E-14
 -1.0395000E-03    1.3186477E-14
 -1.0390000E-03    1.0881827E-14
 -1.0385000E-03    7.1302065E-15
 -1.0380000E-03    2.0086323E-15
 -1.0375000E-03   -4.2638402E-15
 -1.0370000E-03   -1.1318083E-14
 -1.0365000E-03   -1.8638974E-14
 -1.0360000E-03   -2.5583687E-14
 -1.0355000E-03   -3.1415436E-14
 -1.0350000E-03   -3.5352763E-14
 -1.0345000E-03   -3.6633050E-14
 -1.0340000E-03   -3.4587377E-14
 -1.0335000E-03   -2.8722176E-14
 -1.0329999E-03   -1.8801607E-14
 -1.0324999E-03   -4.9232088E-15
 -1.0319999E-03    1.2421553E-14
 -1.0315001E-03    3.2310563E-14
 -1.0310001E-03    5.3386542E-14
 -1.0305000E-03    7.3891902E-14
 -1.0300000E-03    9.1747953E-14
 -1.0295000E-03    1.0468053E-13
 -1.0290000E-03    1.1039013E-13
 -1.0285000E-03    1.0676017E-13
 -1.0280000E-03    9.2092241E-14
 -1.0275000E-03    6.5352292E-14
 -1.0270000E-03    2.6407343E-14
 -1.0265000E-03   -2.3770963E-14
 -1.0260000E-03   -8.2961626E-14
 -1.0255000E-03   -1.4763394E-13
 -1.0250000E-03   -2.1299458E-13
 -1.0245000E-03   -2.7316013E-13
 -1.0240000E-03   -3.2146535E-13
 -1.0235000E-03   -3.5090691E-13
 -1.0230000E-03   -3.5471027E-13
 -1.0225000E-03   -3.2699313E-13
 -1.0220000E-03   -2.6348506E-13
 -1.0215000E-03   -1.6224955E-13
 -1.0210000E-03   -2.4343103E-14
 -1.0205000E-03    1.4566073E-13
 -1.0200000E-03    3.3935715E-13
 -1.0195000E-03    5.4447657E-13
 -1.0190000E-03    7.4519102E-13
 -1.0185000E-03    9.2280079E-13
 -1.0180000E-03    1.0568160E-12
 -1.0174999E-03    1.1264137E-12
 -1.0169999E-03    1.1122155E-12
 -1.0165001E-03    9.9828804E-13
 -1.0160001E-03    7.7423506E-13
 -1.0155000E-03    4.3720837E-13
 -1.0150000E-03   -6.3527471E-15
 -1.0145000E-03   -5.3946257E-13
 -1.0140000E-03   -1.1340133E-12
 -1.0135000E-03   -1.7510648E-12
 -1.0130000E-03   -2.3421380E-12
 -1.0125000E-03   -2.8515892E-12
 -1.0120000E-03   -3.2200586E-12
 -1.0115000E-03   -3.3888940E-12
 -1.0110000E-03   -3.3053425E-12
 -1.0105000E-03   -2.9281991E-12
 -1.0100000E-03   -2.2335040E-12
 -1.0095000E-03   -1.2198008E-12
 -1.0090000E-03    8.7579466E-14
 -1.0085000E-03    1.6337615E-12
 -1.0080000E-03    3.3336038E-12
 -1.0075000E-03    5.0734451E-12
 -1.0070000E-03    6.7156042E-12
 -1.0065000E-03    8.1057331E-12
 -1.0060000E-03    9.0828994E-12
 -1.0055000E-03    9.4919975E-12
 -1.0050000E-03    9.1978473E-12
 -1.0045000E-03    8.1000467E-12
 -1.0040000E-03    6.1474510E-12
 -1.0035000E-03    3.3509757E-12
 -1.0030000E-03   -2.0665609E-13
 -1.0025000E-03   -4.3655643E-12
 -1.0019999E-03   -8.8889521E-12
 -1.0014999E-03   -1.3469854E-11
 -1.0010001E-03   -1.7744889E-11
 -1.0005001E-03   -2.1315026E-11
 -1.0000000E-03   -2.3772741E-11
 -9.9950004E-04   -2.4734327E-11
 -9.9900004E-04   -2.3875473E-11
 -9.9850004E-04   -2.0967625E-11
 -9.9800003E-04   -1.5912237E-11
 -9.9750003E-04   -8.7696716E-12
 -9.9700002E-04    2.2048856E-13
 -9.9650002E-04    1.0630778E-11
 -9.9600002E-04    2.1851358E-11
 -9.9550001E-04    3.3111437E-11
 -9.9500001E-04    4.3517277E-11
 -9.9450001E-04    5.2106118E-11
 -9.9400000E-04    5.7914003E-11
 -9.9350000E-04    6.0053955E-11
 -9.9299999E-04    5.7799550E-11
 -9.9249999E-04    5.0667852E-11
 -9.9199999E-04    3.8494676E-11
 -9.9149998E-04    2.1494903E-11
 -9.9099998E-04    3.0067789E-13
 -9.9049998E-04   -2.4028838E-11
 -9.8999997E-04   -5.0031077E-11
 -9.8949997E-04   -7.5899821E-11
 -9.8899996E-04   -9.9581378E-11
 -9.8849996E-04   -1.1890436E-10
 -9.8799996E-04   -1.3173723E-10
 -9.8749995E-04   -1.3616448E-10
 -9.8699995E-04   -1.3066978E-10
 -9.8649994E-04   -1.1431193E-10
 -9.8600006E-04   -8.6878539E-11
 -9.8550005E-04   -4.9001657E-11
 -9.8500005E-04   -2.2211191E-12
 -9.8450005E-04    5.1016670E-11
 -9.8400004E-04    1.0743287E-10
 -9.8350004E-04    1.6306678E-10
 -9.8300003E-04    2.1350073E-10
 -9.8250003E-04    2.5415053E-10
 -9.8200003E-04    2.8060665E-10
 -9.8150002E-04    2.8900482E-10
 -9.8100002E-04    2.7640018E-10
 -9.8050002E-04    2.4111496E-10
 -9.8000001E-04    1.8302888E-10
 -9.7950001E-04    1.0378137E-10
 -9.7900000E-04    6.8589440E-12
 -9.7850000E-04   -1.0245335E-10
 -9.7800000E-04   -2.1726895E-10
 -9.7749999E-04   -3.2944725E-10
 -9.7699999E-04   -4.3008155E-10
 -9.7649998E-04   -5.1010518E-10
 -9.7599998E-04   -5.6098104E-10
 -9.7549998E-04   -5.7542932E-10
 -9.7499997E-04   -5.4814003E-10
 -9.7450003E-04   -4.7641163E-10
 -9.7400002E-04   -3.6065673E-10
 -9.7350002E-04   -2.0471966E-10
 -9.7300002E-04   -1.5960205E-11
 -9.7250001E-04    1.9492939E-10
 -9.7200001E-04    4.1438852E-10
 -9.7150001E-04    6.2672711E-10
 -9.7100000E-04    8.1511053E-10
 -9.7050000E-04    9.6273867E-10
 -9.6999999E-04    1.0541468E-09
 -9.6949999E-04    1.0765379E-09
 -9.6899999E-04    1.0210457E-09
 -9.6849998E-04    8.8382046E-10
 -9.6799998E-04    6.6683559E-10
 -9.6749997E-04    3.7832237E-10
 -9.6700003E-04    3.2762543E-11
 -9.6650003E-04   -3.4960460E-10
 -9.6600002E-04   -7.4376955E-10
 -9.6550002E-04   -1.1214043E-09
 -9.6500001E-04   -1.4527097E-09
 -9.6450001E-04   -1.7085513E-09
 -9.6400001E-04   -1.8627435E-09
 -9.6350000E-04   -1.8943187E-09
 -9.6300000E-04   -1.7896011E-09
 -9.6249999E-04   -1.5439083E-09
 -9.6199999E-04   -1.1627133E-09
 -9.6149999E-04   -6.6212963E-10
 -9.6099998E-04   -6.8623052E-11
 -9.6049998E-04    5.8209554E-10
 -9.5999998E-04    1.2469786E-09
 -9.5949997E-04    1.8782720E-09
 -9.5900003E-04    2.4267224E-09
 -9.5850002E-04    2.8451634E-09
 -9.5800002E-04    3.0922296E-09
 -9.5750001E-04    3.1359269E-09
 -9.5700001E-04    2.9567704E-09
 -9.5650001E-04    2.5502136E-09
 -9.5600000E-04    1.9281314E-09
 -9.5550000E-04    1.1191696E-09
 -9.5500000E-04    1.6785151E-10
 -9.5449999E-04   -8.6757923E-10
 -9.5399999E-04   -1.9185031E-09
 -9.5349998E-04   -2.9102858E-09
 -9.5299998E-04   -3.7673882E-09
 -9.5249998E-04   -4.4188884E-09
 -9.5199997E-04   -4.8040190E-09
 -9.5150003E-04   -4.8773017E-09
 -9.5100002E-04   -4.6128585E-09
 -9.5050002E-04   -4.0075263E-09
 -9.5000002E-04   -3.0824634E-09
 -9.4950001E-04   -1.8830422E-09
 -9.4900001E-04   -4.7693616E-10
 -9.4850000E-04    1.0495507E-09
 -9.4800000E-04    2.5967277E-09
 -9.4750000E-04    4.0580188E-09
 -9.4699999E-04    5.3272946E-09
 -9.4649999E-04    6.3065206E-09
 -9.4599999E-04    6.9131603E-09
 -9.4549998E-04    7.0867681E-09
 -9.4499998E-04    6.7942434E-09
 -9.4449997E-04    6.0332983E-09
 -9.4400003E-04    4.8338156E-09
 -9.4350002E-04    3.2569227E-09
 -9.4300002E-04    1.3917785E-09
 -9.4250002E-04   -6.4975469E-10
 -9.4200001E-04   -2.7402103E-09
 -9.4150001E-04   -4.7449040E-09
 -9.4100001E-04   -6.5310073E-09
 -9.4050000E-04   -7.9766478E-09
 -9.4000000E-04   -8.9793595E-09
 -9.3949999E-04   -9.4632524E-09
 -9.3899999E-04   -9.3843617E-09
 -9.3849999E-04   -8.7337773E-09
 -9.3799998E-04   -7.5383308E-09
 -9.3749998E-04   -5.8588068E-09
 -9.3699998E-04   -3.7858454E-09
 -9.3649997E-04   -1.4338841E-09
 -9.3600003E-04    1.0663597E-09
 -9.3550002E-04    3.5762617E-09
 -9.3500002E-04    5.9578547E-09
 -9.3450001E-04    8.0819333E-09
 -9.3400001E-04    9.8351203E-09
 -9.3350001E-04    1.1125421E-08
 -9.3300000E-04    1.1885969E-08
 -9.3250000E-04    1.2076852E-08
 -9.3200000E-04    1.1685081E-08
 -9.3149999E-04    1.0722983E-08
 -9.3099999E-04    9.2253893E-09
 -9.3049998E-04    7.2461352E-09
 -9.2999998E-04    4.8543907E-09
 -9.2949998E-04    2.1313100E-09
 -9.2899997E-04   -8.3261487E-10
 -9.2850003E-04   -3.9392596E-09
 -9.2800002E-04   -7.0836066E-09
 -9.2750002E-04   -1.0153694E-08
 -9.2700002E-04   -1.3030162E-08
 -9.2650001E-04   -1.5585941E-08
 -9.2600001E-04   -1.7686755E-08
 -9.2550000E-04   -1.9193081E-08
 -9.2500000E-04   -1.9964192E-08
 -9.2450000E-04   -1.9864677E-08
 -9.2399999E-04   -1.8773591E-08
 -9.2349999E-04   -1.6596028E-08
 -9.2299999E-04   -1.3276516E-08
 -9.2249998E-04   -8.8132524E-09
 -9.2199998E-04   -3.2718277E-09
 -9.2149997E-04    3.2031711E-09
 -9.2100003E-04    1.0380425E-08
 -9.2050002E-04    1.7939747E-08
 -9.2000002E-04    2.5477028E-08
 -9.1950002E-04    3.2517374E-08
 -9.1900001E-04    3.8536911E-08
 -9.1850001E-04    4.2992994E-08
 -9.1800001E-04    4.5361737E-08
 -9.1750000E-04    4.5180858E-08
 -9.1700000E-04    4.2095039E-08
 -9.1649999E-04    3.5900293E-08
 -9.1599999E-04    2.6583425E-08
 -9.1549999E-04    1.4352378E-08
 -9.1499998E-04   -3.4644287E-10
 -9.1449998E-04   -1.6827251E-08
 -9.1399997E-04   -3.4182854E-08
 -9.1349997E-04   -5.1322647E-08
 -9.1300003E-04   -6.7030300E-08
 -9.1250002E-04   -8.0038994E-08
 -9.1200002E-04   -8.9120384E-08
 -9.1150001E-04   -9.3181839E-08
 -9.1100001E-04   -9.1365067E-08
 -9.1050001E-04   -8.3138481E-08
 -9.1000000E-04   -6.8375044E-08
 -9.0950000E-04   -4.7407799E-08
 -9.0899999E-04   -2.1056078E-08
 -9.0849999E-04    9.3828447E-09
 -9.0799999E-04    4.2179767E-08
 -9.0749998E-04    7.5257560E-08
 -9.0699998E-04    1.0631049E-07
 -9.0649998E-04    1.3295303E-07
 -9.0599997E-04    1.5288937E-07
 -9.0550003E-04    1.6409258E-07
 -9.0500002E-04    1.6498012E-07
 -9.0450002E-04    1.5457189E-07
 -9.0400001E-04    1.3261688E-07
 -9.0350001E-04    9.9675809E-08
 -9.0300001E-04    5.7149677E-08
 -9.0250000E-04    7.2471558E-09
 -9.0200000E-04   -4.7111477E-08
 -9.0150000E-04   -1.0245182E-07
 -9.0099999E-04   -1.5495695E-07
 -9.0049999E-04   -2.0072120E-07
 -8.9999998E-04   -2.3602978E-07
 -8.9949998E-04   -2.5764487E-07
 -8.9899998E-04   -2.6307680E-07
 -8.9849997E-04   -2.5081854E-07
 -8.9800003E-04   -2.2052311E-07
 -8.9750002E-04   -1.7310646E-07
 -8.9700002E-04   -1.1076339E-07
 -8.9650002E-04   -3.6889404E-08
 -8.9600001E-04    4.4091323E-08
 -8.9550001E-04    1.2698446E-07
 -8.9500000E-04    2.0615620E-07
 -8.9450000E-04    2.7591511E-07
 -8.9400000E-04    3.3091925E-07
 -8.9349999E-04    3.6657923E-07
 -8.9299999E-04    3.7942664E-07
 -8.9249999E-04    3.6741818E-07
 -8.9199998E-04    3.3015002E-07
 -8.9149998E-04    2.6896146E-07
 -8.9099997E-04    1.8691594E-07
 -8.9050003E-04    8.8655064E-08
 -8.9000002E-04   -1.9868303E-08
 -8.8950002E-04   -1.3176241E-07
 -8.8900002E-04   -2.3965046E-07
 -8.8850001E-04   -3.3617482E-07
 -8.8800001E-04   -4.1451517E-07
 -8.8750001E-04   -4.6888249E-07
 -8.8700000E-04   -4.9495105E-07
 -8.8650000E-04   -4.9019491E-07
 -8.8599999E-04   -4.5410104E-07
 -8.8549999E-04   -3.8824143E-07
 -8.8499999E-04   -2.9619594E-07
 -8.8449998E-04   -1.8332995E-07
 -8.8399998E-04   -5.6441948E-08
 -8.8349998E-04    7.6693382E-08
 -8.8299997E-04    2.0785269E-07
 -8.8250003E-04    3.2892194E-07
 -8.8200002E-04    4.3244273E-07
 -8.8150002E-04    5.1210526E-07
 -8.8100001E-04    5.6315127E-07
 -8.8050001E-04    5.8265709E-07
 -8.8000001E-04    5.6967741E-07
 -8.7950000E-04    5.2524285E-07
 -8.7900000E-04    4.5221526E-07
 -8.7850000E-04    3.5501836E-07
 -8.7799999E-04    2.3927061E-07
 -8.7749999E-04    1.1135532E-07
 -8.7699998E-04   -2.2032211E-08
 -8.7649998E-04   -1.5432038E-07
 -8.7599998E-04   -2.7944247E-07
 -8.7549997E-04   -3.9213330E-07
 -8.7500003E-04   -4.8812046E-07
 -8.7450002E-04   -5.6420237E-07
 -8.7400002E-04   -6.1821680E-07
 -8.7350002E-04   -6.4891736E-07
 -8.7300001E-04   -6.5578519E-07
 -8.7250001E-04   -6.3881117E-07
 -8.7200000E-04   -5.9828767E-07
 -8.7150000E-04   -5.3464822E-07
 -8.7100000E-04   -4.4838760E-07
 -8.7049999E-04   -3.4008508E-07
 -8.6999999E-04   -2.1054005E-07
 -8.6949999E-04   -6.1013040E-08
 -8.6899998E-04    1.0645114E-07
 -8.6849998E-04    2.8865750E-07
 -8.6799997E-04    4.8090419E-07
 -8.6750003E-04    6.7669464E-07
 -8.6700002E-04    8.6758126E-07
 -8.6650002E-04    1.0431976E-06
 -8.6600002E-04    1.1915245E-06
 -8.6550001E-04    1.2994163E-06
 -8.6500001E-04    1.3533901E-06
 -8.6450001E-04    1.3406499E-06
 -8.6400000E-04    1.2502924E-06
 -8.6350000E-04    1.0746074E-06
 -8.6299999E-04    8.1036774E-07
 -8.6249999E-04    4.5998146E-07
 -8.6199999E-04    3.2377443E-08
 -8.6149998E-04   -4.5650393E-07
 -8.6099998E-04   -9.8372334E-07
 -8.6049997E-04   -1.5199378E-06
 -8.5999997E-04   -2.0306184E-06
 -8.5950003E-04   -2.4778778E-06
 -8.5900002E-04   -2.8228449E-06
 -8.5850002E-04   -3.0284602E-06
 -8.5800001E-04   -3.0625256E-06
 -8.5750001E-04   -2.9007854E-06
 -8.5700001E-04   -2.5297968E-06
 -8.5650000E-04   -1.9493300E-06
 -8.5600000E-04   -1.1740502E-06
 -8.5549999E-04   -2.3425770E-07
 -8.5499999E-04    8.2447792E-07
 -8.5449999E-04    1.9428892E-06
 -8.5399998E-04    3.0507995E-06
 -8.5349998E-04    4.0710447E-06
 -8.5299998E-04    4.9243449E-06
 -8.5249997E-04    5.5348514E-06
 -8.5200003E-04    5.8360120E-06
 -8.5150002E-04    5.7763386E-06
 -8.5100002E-04    5.3246331E-06
 -8.5050002E-04    4.4742183E-06
 -8.5000001E-04    3.2457672E-06
 -8.4950001E-04    1.6883848E-06
 -8.4900000E-04   -1.2129226E-07
 -8.4850000E-04   -2.0820898E-06
 -8.4800000E-04   -4.0733403E-06
 -8.4749999E-04   -5.9617787E-06
 -8.4699999E-04   -7.6099359E-06
 -8.4649998E-04   -8.8855304E-06
 -8.4599998E-04   -9.6712556E-06
 -8.4549998E-04   -9.8742639E-06
 -8.4499997E-04   -9.4346460E-06
 -8.4450003E-04   -8.3322020E-06
 -8.4400002E-04   -6.5908862E-06
 -8.4350002E-04   -4.2804340E-06
 -8.4300002E-04   -1.5148551E-06
 -8.4250001E-04    1.5523296E-06
 -8.4200001E-04    4.7359772E-06
 -8.4150000E-04    7.8299909E-06
 -8.4100000E-04    1.0620188E-05
 -8.4050000E-04    1.2898588E-05
 -8.3999999E-04    1.4478197E-05
 -8.3949999E-04    1.5207268E-05
 -8.3899999E-04    1.4981988E-05
 -8.3849998E-04    1.3756603E-05
 -8.3799998E-04    1.1550118E-05
 -8.3749997E-04    8.4488893E-06
 -8.3700003E-04    4.6047021E-06
 -8.3650002E-04    2.2821541E-07
 -8.3600002E-04   -4.4220246E-06
 -8.3550002E-04   -9.0544681E-06
 -8.3500001E-04   -1.3362514E-05
 -8.3450001E-04   -1.7044433E-05
 -8.3400001E-04   -1.9823992E-05
 -8.3350000E-04   -2.1470370E-05
 -8.3300000E-04   -2.1815964E-05
 -8.3249999E-04   -2.0770765E-05
 -8.3199999E-04   -1.8332155E-05
 -8.3149999E-04   -1.4589239E-05
 -8.3099998E-04   -9.7211851E-06
 -8.3049998E-04   -3.9894326E-06
 -8.2999998E-04    2.2759655E-06
 -8.2949997E-04    8.6951713E-06
 -8.2900003E-04    1.4861495E-05
 -8.2850002E-04    2.0367033E-05
 -8.2800002E-04    2.4829400E-05
 -8.2750001E-04    2.7917786E-05
 -8.2700001E-04    2.9376572E-05
 -8.2650001E-04    2.9044844E-05
 -8.2600000E-04    2.6870381E-05
 -8.2550000E-04    2.2916969E-05
 -8.2500000E-04    1.7364413E-05
 -8.2449999E-04    1.0500962E-05
 -8.2399999E-04    2.7084698E-06
 -8.2349998E-04   -5.5589662E-06
 -8.2299998E-04   -1.3801645E-05
 -8.2249998E-04   -2.1504600E-05
 -8.2199997E-04   -2.8169758E-05
 -8.2150003E-04   -3.3347853E-05
 -8.2100002E-04   -3.6668091E-05
 -8.2050002E-04   -3.7863549E-05
 -8.2000002E-04   -3.6790643E-05
 -8.1950001E-04   -3.3441298E-05
 -8.1900001E-04   -2.7946897E-05
 -8.1850000E-04   -2.0573656E-05
 -8.1800000E-04   -1.1709535E-05
 -8.1750000E-04   -1.8433902E-06
 -8.1699999E-04    8.4624362E-06
 -8.1649999E-04    1.8604509E-05
 -8.1599999E-04    2.7973725E-05
 -8.1549998E-04    3.5991648E-05
 -8.1499998E-04    4.2145573E-05
 -8.1449997E-04    4.6020163E-05
 -8.1400003E-04    4.7323778E-05
 -8.1350002E-04    4.5907869E-05
 -8.1300002E-04    4.1778243E-05
 -8.1250002E-04    3.5097521E-05
 -8.1200001E-04    2.6178594E-05
 -8.1150001E-04    1.5469413E-05
 -8.1100001E-04    3.5299636E-06
 -8.1050000E-04   -8.9973128E-06
 -8.1000000E-04   -2.1421980E-05
 -8.0949999E-04   -3.3043096E-05
 -8.0899999E-04   -4.3187636E-05
 -8.0849999E-04   -5.1247822E-05
 -8.0799998E-04   -5.6715326E-05
 -8.0749998E-04   -5.9210564E-05
 -8.0699997E-04   -5.8505528E-05
 -8.0649997E-04   -5.4538978E-05
 -8.0600003E-04   -4.7423207E-05
 -8.0550002E-04   -3.7442001E-05
 -8.0500002E-04   -2.5039833E-05
 -8.0450001E-04   -1.0802779E-05
 -8.0400001E-04    4.5680017E-06
 -8.0350001E-04    2.0289059E-05
 -8.0300000E-04    3.5532248E-05
 -8.0250000E-04    4.9465449E-05
 -8.0200000E-04    6.1294631E-05
 -8.0149999E-04    7.0305330E-05
 -8.0099999E-04    7.5901618E-05
 -8.0049998E-04    7.7640783E-05
 -7.9999998E-04    7.5261938E-05
 -7.9949998E-04    6.8707013E-05
 -7.9899997E-04    5.8132882E-05
 -7.9850003E-04    4.3913598E-05
 -7.9800002E-04    2.6632124E-05
 -7.9750002E-04    7.0613532E-06
 -7.9700002E-04   -1.3865349E-05
 -7.9650001E-04   -3.5093355E-05
 -7.9600001E-04   -5.5494515E-05
 -7.9550000E-04   -7.3921648E-05
 -7.9500000E-04   -8.9267633E-05
 -7.9450000E-04   -1.0052642E-04
 -7.9399999E-04   -1.0685303E-04
 -7.9349999E-04   -1.0761930E-04
 -7.9299998E-04   -1.0246208E-04
 -7.9249998E-04   -9.1320755E-05
 -7.9199998E-04   -7.4461052E-05
 -7.9149997E-04   -5.2482756E-05
 -7.9100003E-04   -2.6309468E-05
 -7.9050002E-04    2.8404811E-06
 -7.9000002E-04    3.3502009E-05
 -7.8950002E-04    6.4028929E-05
 -7.8900001E-04    9.2675051E-05
 -7.8850001E-04    1.1768725E-04
 -7.8800000E-04    1.3740611E-04
 -7.8750000E-04    1.5036881E-04
 -7.8700000E-04    1.5540818E-04
 -7.8649999E-04    1.5174193E-04
 -7.8599999E-04    1.3904562E-04
 -7.8549999E-04    1.1750380E-04
 -7.8499998E-04    8.7834393E-05
 -7.8449998E-04    5.1282710E-05
 -7.8399997E-04    9.5831529E-06
 -7.8350003E-04   -3.5111603E-05
 -7.8300002E-04   -8.0331934E-05
 -7.8250002E-04   -1.2341923E-04
 -7.8200002E-04   -1.6167437E-04
 -7.8150001E-04   -1.9251906E-04
 -7.8100001E-04   -2.1366082E-04
 -7.8050001E-04   -2.2325151E-04
 -7.8000000E-04   -2.2002896E-04
 -7.7950000E-04   -2.0343176E-04
 -7.7899999E-04   -1.7367794E-04
 -7.7849999E-04   -1.3180026E-04
 -7.7799999E-04   -7.9632955E-05
 -7.7749998E-04   -1.9747582E-05
 -7.7699998E-04    4.4661196E-05
 -7.7649998E-04    1.0993594E-04
 -7.7599997E-04    1.7215549E-04
 -7.7550003E-04    2.2736249E-04
 -7.7500002E-04    2.7180681E-04
 -7.7450002E-04    3.0219011E-04
 -7.7400001E-04    3.1589621E-04
 -7.7350001E-04    3.1119172E-04
 -7.7300001E-04    2.8738240E-04
 -7.7250000E-04    2.4491295E-04
 -7.7200000E-04    1.8540051E-04
 -7.7150000E-04    1.1159619E-04
 -7.7099999E-04    2.7273301E-05
 -7.7049999E-04   -6.2954656E-05
 -7.6999998E-04   -1.5387819E-04
 -7.6949998E-04   -2.3998601E-04
 -7.6899998E-04   -3.1579280E-04
 -7.6849997E-04   -3.7618159E-04
 -7.6800003E-04   -4.1673955E-04
 -7.6750002E-04   -4.3406553E-04
 -7.6700002E-04   -4.2602851E-04
 -7.6650002E-04   -3.9195816E-04
 -7.6600001E-04   -3.3275253E-04
 -7.6550001E-04   -2.5089187E-04
 -7.6500000E-04   -1.5035411E-04
 -7.6450000E-04   -3.6432706E-05
 -7.6400000E-04    8.4535619E-05
 -7.6349999E-04    2.0551978E-04
 -7.6299999E-04    3.1920086E-04
 -7.6249999E-04    4.1841285E-04
 -7.6199998E-04    4.9659144E-04
 -7.6149998E-04    5.4820208E-04
 -7.6099997E-04    5.6912040E-04
 -7.6050003E-04    5.5693852E-04
 -7.6000002E-04    5.1117560E-04
 -7.5950002E-04    4.3337615E-04
 -7.5900002E-04    3.2708544E-04
 -7.5850001E-04    1.9770024E-04
 -7.5800001E-04    5.2199321E-05
 -7.5750001E-04   -1.0123268E-04
 -7.5700000E-04   -2.5366803E-04
 -7.5650000E-04   -3.9595889E-04
 -7.5599999E-04   -5.1928987E-04
 -7.5549999E-04   -6.1572599E-04
 -7.5499999E-04   -6.7872240E-04
 -7.5449998E-04   -7.0356217E-04
 -7.5399998E-04   -6.8769377E-04
 -7.5349997E-04   -6.3094433E-04
 -7.5299997E-04   -5.3559197E-04
 -7.5250003E-04   -4.0629006E-04
 -7.5200002E-04   -2.4984375E-04
 -7.5150002E-04   -7.4849857E-05
 -7.5100001E-04    1.0878089E-04
 -7.5050001E-04    2.9039220E-04
 -7.5000001E-04    4.5920809E-04
 -7.4950000E-04    6.0497888E-04
 -7.4900000E-04    7.1860768E-04
 -7.4850000E-04    7.9271937E-04
 -7.4799999E-04    8.2213531E-04
 -7.4749999E-04    8.0422411E-04
 -7.4699998E-04    7.3910435E-04
 -7.4649998E-04    6.2968524E-04
 -7.4599998E-04    4.8154051E-04