 -1.2000001E-03    1.0000000E-24
 -1.1995001E-03    1.0000000E-24
 -1.1990000E-03    1.0000000E-24
 -1.1985000E-03    1.0000000E-24
 -1.1980000E-03    1.0000000E-24
 -1.1975000E-03    1.0000000E-24
 -1.1970000E-03    1.0000000E-24
 -1.1965000E-03    1.0000000E-24
 -1.1960000E-03    1.0000000E-24
 -1.1955000E-03    1.0000001E-24
 -1.1950000E-03    1.0000002E-24
 -1.1945000E-03    1.0000002E-24
 -1.1940000E-03    1.0000002E-24
 -1.1935000E-03    1.0000002E-24
 -1.1930000E-03    1.0000002E-24
 -1.1925000E-03    1.0000002E-24
 -1.1920000E-03    1.0000002E-24
 -1.1915000E-03    1.0000002E-24
 -1.1910000E-03    1.0000002E-24
 -1.1905000E-03    1.0000002E-24
 -1.1900000E-03    1.0000002E-24
 -1.1895000E-03    1.0000002E-24
 -1.1890000E-03    1.0000002E-24
 -1.1885000E-03    1.0000002E-24
 -1.1880000E-03    1.0000002E-24
 -1.1875000E-03    1.0000002E-24
 -1.1870000E-03    1.0000002E-24
 -1.1865000E-03    1.0000002E-24
 -1.1860000E-03    1.0000002E-24
 -1.1854999E-03    1.0000002E-24
 -1.1849999E-03    1.0000001E-24
 -1.1845001E-03    1.0000000E-24
 -1.1840001E-03    1.0000000E-24
 -1.1835000E-03    1.0000000E-24
 -1.1830000E-03    1.0000000E-24
 -1.1825000E-03    1.0000000E-24
 -1.1820000E-03    1.0000000E-24
 -1.1815000E-03    1.0000000E-24
 -1.1810000E-03    1.0000000E-24
 -1.1805000E-03    1.0000000E-24
 -1.1800000E-03    1.0000000E-24
 -1.1795000E-03    1.0000001E-24
 -1.1790000E-03    1.0000002E-24
 -1.1785000E-03    1.0000003E-24
 -1.1780000E-03    1.0000003E-24
 -1.1775000E-03    1.0000003E-24
 -1.1770000E-03    1.0000003E-24
 -1.1765000E-03    1.0000003E-24
 -1.1760000E-03    1.0000003E-24
 -1.1755000E-03    1.0000003E-24
 -1.1750000E-03    1.0000002E-24
 -1.1745000E-03    1.0000001E-24
 -1.1740000E-03    1.0000000E-24
 -1.1735000E-03    9.9999992E-25
 -1.1730000E-03    9.9999992E-25
 -1.1725000E-03    9.9999992E-25
 -1.1720000E-03    9.9999992E-25
 -1.1715000E-03    9.9999992E-25
 -1.1710000E-03    9.9999992E-25
 -1.1704999E-03    9.9999992E-25
 -1.1699999E-03    9.9999992E-25
 -1.1695001E-03    9.9999992E-25
 -1.1690001E-03    1.0000000E-24
 -1.1685000E-03    1.0000001E-24
 -1.1680000E-03    1.0000002E-24
 -1.1675000E-03    1.0000003E-24
 -1.1670000E-03    1.0000004E-24
 -1.1665000E-03    1.0000004E-24
 -1.1660000E-03    1.0000004E-24
 -1.1655000E-03    1.0000004E-24
 -1.1650000E-03    1.0000004E-24
 -1.1645000E-03    1.0000004E-24
 -1.1640000E-03    1.0000004E-24
 -1.1635000E-03    1.0000004E-24
 -1.1630000E-03    1.0000003E-24
 -1.1625000E-03    1.0000002E-24
 -1.1620000E-03    1.0000001E-24
 -1.1615000E-03    1.0000001E-24
 -1.1610000E-03    1.0000001E-24
 -1.1605000E-03    1.0000001E-24
 -1.1600000E-03    1.0000001E-24
 -1.1595000E-03    1.0000001E-24
 -1.1590000E-03    1.0000001E-24
 -1.1585000E-03    1.0000001E-24
 -1.1580000E-03    1.0000001E-24
 -1.1575000E-03    1.0000002E-24
 -1.1570000E-03    1.0000003E-24
 -1.1565000E-03    1.0000004E-24
 -1.1560000E-03    1.0000004E-24
 -1.1555000E-03    1.0000004E-24
 -1.1549999E-03    1.0000004E-24
 -1.1544999E-03    1.0000004E-24
 -1.1540001E-03    1.0000004E-24
 -1.1535001E-03    1.0000004E-24
 -1.1530000E-03    1.0000003E-24
 -1.1525000E-03    1.0000002E-24
 -1.1520000E-03    1.0000001E-24
 -1.1515000E-03    1.0000000E-24
 -1.1510000E-03    9.9999992E-25
 -1.1505000E-03    9.9999992E-25
 -1.1500000E-03    9.9999992E-25
 -1.1495000E-03    9.9999992E-25
 -1.1490000E-03    1.0000000E-24
 -1.1485000E-03    1.0000001E-24
 -1.1480000E-03    1.0000002E-24
 -1.1475000E-03    1.0000003E-24
 -1.1470000E-03    1.0000004E-24
 -1.1465000E-03    1.0000005E-24
 -1.1460000E-03    1.0000006E-24
 -1.1455000E-03    1.0000006E-24
 -1.1450000E-03    1.0000006E-24
 -1.1445000E-03    1.0000005E-24
 -1.1440000E-03    1.0000004E-24
 -1.1435000E-03    1.0000003E-24
 -1.1430000E-03    1.0000002E-24
 -1.1425000E-03    1.0000000E-24
 -1.1420000E-03    9.9999982E-25
 -1.1415000E-03    9.9999972E-25
 -1.1410000E-03    9.9999963E-25
 -1.1405000E-03    9.9999953E-25
 -1.1399999E-03    9.9999953E-25
 -1.1394999E-03    9.9999953E-25
 -1.1390001E-03    9.9999963E-25
 -1.1385001E-03    9.9999972E-25
 -1.1380001E-03    9.9999982E-25
 -1.1375000E-03    1.0000000E-24
 -1.1370000E-03    1.0000002E-24
 -1.1365000E-03    1.0000004E-24
 -1.1360000E-03    1.0000005E-24
 -1.1355000E-03    1.0000006E-24
 -1.1350000E-03    1.0000007E-24
 -1.1345000E-03    1.0000007E-24
 -1.1340000E-03    1.0000007E-24
 -1.1335000E-03    1.0000007E-24
 -1.1330000E-03    1.0000006E-24
 -1.1325000E-03    1.0000005E-24
 -1.1320000E-03    1.0000004E-24
 -1.1315000E-03    1.0000003E-24
 -1.1310000E-03    1.0000002E-24
 -1.1305000E-03    1.0000001E-24
 -1.1300000E-03    1.0000000E-24
 -1.1295000E-03    1.0000000E-24
 -1.1290000E-03    1.0000000E-24
 -1.1285000E-03    1.0000000E-24
 -1.1280000E-03    1.0000000E-24
 -1.1275000E-03    1.0000001E-24
 -1.1270000E-03    1.0000002E-24
 -1.1265000E-03    1.0000003E-24
 -1.1260000E-03    1.0000004E-24
 -1.1255000E-03    1.0000004E-24
 -1.1250000E-03    1.0000004E-24
 -1.1244999E-03    1.0000004E-24
 -1.1239999E-03    1.0000003E-24
 -1.1235001E-03    1.0000002E-24
 -1.1230001E-03    1.0000001E-24
 -1.1225000E-03    1.0000000E-24
 -1.1220000E-03    9.9999992E-25
 -1.1215000E-03    9.9999982E-25
 -1.1210000E-03    9.9999972E-25
 -1.1205000E-03    9.9999963E-25
 -1.1200000E-03    9.9999963E-25
 -1.1195000E-03    9.9999963E-25
 -1.1190000E-03    9.9999972E-25
 -1.1185000E-03    9.9999982E-25
 -1.1180000E-03    1.0000000E-24
 -1.1175000E-03    1.0000003E-24
 -1.1170000E-03    1.0000006E-24
 -1.1165000E-03    1.0000009E-24
 -1.1160000E-03    1.0000012E-24
 -1.1155000E-03    1.0000014E-24
 -1.1150000E-03    1.0000015E-24
 -1.1145000E-03    1.0000014E-24
 -1.1140000E-03    1.0000011E-24
 -1.1135000E-03    1.0000006E-24
 -1.1130000E-03    9.9999982E-25
 -1.1125000E-03    9.9999874E-25
 -1.1120000E-03    9.9999726E-25
 -1.1115000E-03    9.9999548E-25
 -1.1110000E-03    9.9999351E-25
 -1.1105000E-03    9.9999144E-25
 -1.1100000E-03    9.9998947E-25
 -1.1094999E-03    9.9998779E-25
 -1.1089999E-03    9.9998690E-25
 -1.1084999E-03    9.9998720E-25
 -1.1080001E-03    9.9998927E-25
 -1.1075001E-03    9.9999371E-25
 -1.1070000E-03    1.0000013E-24
 -1.1065000E-03    1.0000126E-24
 -1.1060000E-03    1.0000282E-24
 -1.1055000E-03    1.0000482E-24
 -1.1050000E-03    1.0000725E-24
 -1.1045000E-03    1.0001001E-24
 -1.1040000E-03    1.0001294E-24
 -1.1035000E-03    1.0001575E-24
 -1.1030000E-03    1.0001805E-24
 -1.1025000E-03    1.0001930E-24
 -1.1020000E-03    1.0001887E-24
 -1.1015000E-03    1.0001597E-24
 -1.1010000E-03    1.0000978E-24
 -1.1005000E-03    9.9999499E-25
 -1.1000000E-03    9.9984392E-25
 -1.0995000E-03    9.9963981E-25
 -1.0990000E-03    9.9938185E-25
 -1.0985000E-03    9.9907508E-25
 -1.0980000E-03    9.9873262E-25
 -1.0975000E-03    9.9837753E-25
 -1.0970000E-03    9.9804453E-25
 -1.0965000E-03    9.9778135E-25
 -1.0960000E-03    9.9764852E-25
 -1.0955000E-03    9.9771834E-25
 -1.0950000E-03    9.9807155E-25
 -1.0945000E-03    9.9879198E-25
 -1.0939999E-03    9.9995841E-25
 -1.0934999E-03    1.0016335E-24
 -1.0930001E-03    1.0038502E-24
 -1.0925001E-03    1.0065959E-24
 -1.0920000E-03    1.0097949E-24
 -1.0915000E-03    1.0132910E-24
 -1.0910000E-03    1.0168320E-24
 -1.0905000E-03    1.0200580E-24
 -1.0900000E-03    1.0224975E-24
 -1.0895000E-03    1.0235739E-24
 -1.0890000E-03    1.0226253E-24
 -1.0885000E-03    1.0189422E-24
 -1.0880000E-03    1.0118239E-24
 -1.0875000E-03    1.0006562E-24
 -1.0870000E-03    9.8500969E-25
 -1.0865000E-03    9.6475519E-25
 -1.0860000E-03    9.4019135E-25
 -1.0855000E-03    9.1217495E-25
 -1.0850000E-03    8.8224162E-25
 -1.0845000E-03    8.5269967E-25
 -1.0840000E-03    8.2667909E-25
 -1.0835000E-03    8.0811266E-25
 -1.0830000E-03    8.0162808E-25
 -1.0825000E-03    8.1232957E-25
 -1.0820000E-03    8.4545260E-25
 -1.0815000E-03    9.0588290E-25
 -1.0810000E-03    9.9754015E-25
 -1.0805000E-03    1.1226439E-24
 -1.0800000E-03    1.2808939E-24
 -1.0795000E-03    1.4686188E-24
 -1.0790000E-03    1.6779699E-24
 -1.0784999E-03    1.8962534E-24
 -1.0779999E-03    2.1055191E-24
 -1.0775001E-03    2.2825274E-24
 -1.0770001E-03    2.3992301E-24
 -1.0765000E-03    2.4238832E-24
 -1.0760000E-03    2.3228920E-24
 -1.0755000E-03    2.0634481E-24
 -1.0750000E-03    1.6169529E-24
 -1.0745000E-03    9.6315282E-25
 -1.0740000E-03    9.4805994E-26
 -1.0735000E-03   -9.7740004E-25
 -1.0730000E-03   -2.2200792E-24
 -1.0725000E-03   -3.5730350E-24
 -1.0720000E-03   -4.9464083E-24
 -1.0715000E-03   -6.2197557E-24
 -1.0710000E-03   -7.2437452E-24
 -1.0705000E-03   -7.8451215E-24
 -1.0700000E-03   -7.8354651E-24
 -1.0695000E-03   -7.0240838E-24
 -1.0690000E-03   -5.2350592E-24
 -1.0685000E-03   -2.3280993E-24
 -1.0680000E-03    1.7776271E-24
 -1.0675000E-03    7.0780253E-24
 -1.0670000E-03    1.3458884E-23
 -1.0665000E-03    2.0673400E-23
 -1.0660000E-03    2.8325326E-23
 -1.0655000E-03    3.5860919E-23
 -1.0650000E-03    4.2573075E-23
 -1.0645000E-03    4.7620706E-23
 -1.0640000E-03    5.0066036E-23
 -1.0634999E-03    4.8931467E-23
 -1.0629999E-03    4.3276389E-23
 -1.0625001E-03    3.2292488E-23
 -1.0620001E-03    1.5414118E-23
 -1.0615001E-03   -7.5622163E-24
 -1.0610000E-03   -3.6357529E-23
 -1.0605000E-03   -7.0099972E-23
 -1.0600000E-03   -1.0723717E-22
 -1.0595000E-03   -1.4548540E-22
 -1.0590000E-03   -1.8183039E-22
 -1.0585000E-03   -2.1259372E-22
 -1.0580000E-03   -2.3357649E-22
 -1.0575000E-03   -2.4028842E-22
 -1.0570000E-03   -2.2826461E-22
 -1.0565000E-03   -1.9346484E-22
 -1.0560000E-03   -1.3274200E-22
 -1.0555000E-03   -4.4355774E-23
 -1.0550000E-03    7.1502068E-23
 -1.0545000E-03    2.1221474E-22
 -1.0540000E-03    3.7233182E-22
 -1.0535000E-03    5.4330332E-22
 -1.0530000E-03    7.1341703E-22
 -1.0525000E-03    8.6799670E-22
 -1.0520000E-03    9.8991083E-22
 -1.0515000E-03    1.0604256E-21
 -1.0510000E-03    1.0604158E-21
 -1.0505000E-03    9.7191632E-22
 -1.0500000E-03    7.7996392E-22
 -1.0495000E-03    4.7464092E-22
 -1.0490000E-03    5.3191742E-23
 -1.0485000E-03   -4.7795520E-22
 -1.0479999E-03   -1.1014603E-21
 -1.0474999E-03   -1.7878637E-21
 -1.0470001E-03   -2.4951285E-21
 -1.0465001E-03   -3.1691577E-21
 -1.0460000E-03   -3.7454787E-21
 -1.0455000E-03   -4.1522322E-21
 -1.0450000E-03   -4.3145183E-21
 -1.0445000E-03   -4.1600508E-21
 -1.0440000E-03   -3.6259393E-21
 -1.0435000E-03   -2.6662826E-21
 -1.0430000E-03   -1.2601024E-21
 -1.0425000E-03    5.8098412E-22
 -1.0420000E-03    2.8060862E-21
 -1.0415000E-03    5.3201616E-21
 -1.0410000E-03    7.9817880E-21
 -1.0405000E-03    1.0604389E-20
 -1.0400000E-03    1.2961615E-20
 -1.0395000E-03    1.4797369E-20
 -1.0390000E-03    1.5840682E-20
 -1.0385000E-03    1.5825264E-20
 -1.0380000E-03    1.4513108E-20
 -1.0375000E-03    1.1721031E-20
 -1.0370000E-03    7.3485126E-21
 -1.0365000E-03    1.4047369E-21
 -1.0360000E-03   -5.9676945E-21
 -1.0355000E-03   -1.4475166E-20
 -1.0350000E-03   -2.3664461E-20
 -1.0345000E-03   -3.2925915E-20
 -1.0340000E-03   -4.1510647E-20
 -1.0335000E-03   -4.8563493E-20
 -1.0329999E-03   -5.3172210E-20
 -1.0324999E-03   -5.4432291E-20
 -1.0319999E-03   -5.1525151E-20
 -1.0315001E-03   -4.3805853E-20
 -1.0310001E-03   -3.0894795E-20
 -1.0305000E-03   -1.2766298E-20
 -1.0300000E-03    1.0174254E-20
 -1.0295000E-03    3.7033884E-20
 -1.0290000E-03    6.6405368E-20
 -1.0285000E-03    9.6379130E-20
 -1.0280000E-03    1.2460077E-19
 -1.0275000E-03    1.4837892E-19
 -1.0270000E-03    1.6484438E-19
 -1.0265000E-03    1.7115759E-19
 -1.0260000E-03    1.6475637E-19
 -1.0255000E-03    1.4363050E-19
 -1.0250000E-03    1.0660479E-19
 -1.0245000E-03    5.3607760E-20
 -1.0240000E-03   -1.4100845E-20
 -1.0235000E-03   -9.3771747E-20
 -1.0230000E-03   -1.8110520E-19
 -1.0225000E-03   -2.7031234E-19
 -1.0220000E-03   -3.5431829E-19
 -1.0215000E-03   -4.2511746E-19
 -1.0210000E-03   -4.7428024E-19
 -1.0205000E-03   -4.9359671E-19
 -1.0200000E-03   -4.7582722E-19
 -1.0195000E-03   -4.1551510E-19
 -1.0190000E-03   -3.0980121E-19
 -1.0185000E-03   -1.5916837E-19
 -1.0180000E-03    3.1964210E-20
 -1.0174999E-03    2.5487916E-19
 -1.0169999E-03    4.9650948E-19
 -1.0165001E-03    7.3976199E-19
 -1.0160001E-03    9.6425995E-19
 -1.0155000E-03    1.1475183E-18
 -1.0150000E-03    1.2665302E-18
 -1.0145000E-03    1.2996993E-18
 -1.0140000E-03    1.2290104E-18
 -1.0135000E-03    1.0422859E-18
 -1.0130000E-03    7.3534118E-19
 -1.0125000E-03    3.1382067E-19
 -1.0120000E-03   -2.0551145E-19
 -1.0115000E-03   -7.9424962E-19
 -1.0110000E-03   -1.4127866E-18
 -1.0105000E-03   -2.0118577E-18
 -1.0100000E-03   -2.5352548E-18
 -1.0095000E-03   -2.9236806E-18
 -1.0090000E-03   -3.1196010E-18
 -1.0085000E-03   -3.0728325E-18
 -1.0080000E-03   -2.7464818E-18
 -1.0075000E-03   -2.1227506E-18
 -1.0070000E-03   -1.2080319E-18
 -1.0065000E-03   -3.6688769E-20
 -1.0060000E-03    1.3270930E-18
 -1.0055000E-03    2.7899152E-18
 -1.0050000E-03    4.2326509E-18
 -1.0045000E-03    5.5170147E-18
 -1.0040000E-03    6.4951793E-18
 -1.0035000E-03    7.0221017E-18
 -1.0030000E-03    6.9698892E-18
 -1.0025000E-03    6.2432251E-18
 -1.0019999E-03    4.7945696E-18
 -1.0014999E-03    2.6376254E-18
 -1.0010001E-03   -1.4255858E-19
 -1.0005001E-03   -3.3844759E-18
 -1.0000000E-03   -6.8514969E-18
 -9.9950004E-04   -1.0240774E-17
 -9.9900004E-04   -1.3200312E-17
 -9.9850004E-04   -1.5354148E-17
 -9.9800003E-04   -1.6334751E-17
 -9.9750003E-04   -1.5820913E-17
 -9.9700002E-04   -1.3578506E-17
 -9.9650002E-04   -9.5006905E-18
 -9.9600002E-04   -3.6435366E-18
 -9.9550001E-04    3.7473106E-18
 -9.9500001E-04    1.2223316E-17
 -9.9450001E-04    2.1137034E-17
 -9.9400000E-04    2.9666422E-17
 -9.9350000E-04    3.6861183E-17
 -9.9299999E-04    4.1710983E-17
 -9.9249999E-04    4.3233293E-17
 -9.9199999E-04    4.0576200E-17
 -9.9149998E-04    3.3129209E-17
 -9.9099998E-04    2.0632829E-17
 -9.9049998E-04    3.2761117E-18
 -9.8999997E-04   -1.8229757E-17
 -9.8949997E-04   -4.2613731E-17
 -9.8899996E-04   -6.8053870E-17
 -9.8849996E-04   -9.2241504E-17
 -9.8799996E-04   -1.1250550E-16
 -9.8749995E-04   -1.2599668E-16
 -9.8699995E-04   -1.2992687E-16
 -9.8649994E-04   -1.2185041E-16
 -9.8600006E-04   -9.9969958E-17
 -9.8550005E-04   -6.3442172E-17
 -9.8500005E-04   -1.2654183E-17
 -9.8450005E-04    5.0561077E-17
 -9.8400004E-04    1.2280333E-16
 -9.8350004E-04    1.9910710E-16
 -9.8300003E-04    2.7309187E-16
 -9.8250003E-04    3.3727515E-16
 -9.8200003E-04    3.8355132E-16
 -9.8150002E-04    4.0382367E-16
 -9.8100002E-04    3.9076092E-16
 -9.8050002E-04    3.3863162E-16
 -9.8000001E-04    2.4415471E-16
 -9.7950001E-04    1.0728985E-16
 -9.7900000E-04   -6.8116444E-17
 -9.7850000E-04   -2.7391658E-16
 -9.7800000E-04   -4.9756187E-16
 -9.7749999E-04   -7.2238548E-16
 -9.7699999E-04   -9.2831613E-16
 -9.7649998E-04   -1.0930376E-15
 -9.7599998E-04   -1.1935733E-15
 -9.7549998E-04   -1.2082320E-15
 -9.7499997E-04   -1.1188042E-15
 -9.7450003E-04   -9.1285831E-16
 -9.7400002E-04   -5.8594817E-16
 -9.7350002E-04   -1.4351510E-16
 -9.7300002E-04    3.9774118E-16
 -9.7250001E-04    1.0092437E-15
 -9.7200001E-04    1.6508633E-15
 -9.7150001E-04    2.2723302E-15
 -9.7100000E-04    2.8158012E-15
 -9.7050000E-04    3.2195623E-15
 -9.6999999E-04    3.4227409E-15
 -9.6949999E-04    3.3707882E-15
 -9.6899999E-04    3.0213835E-15
 -9.6849998E-04    2.3503150E-15
 -9.6799998E-04    1.3568108E-15
 -9.6749997E-04    6.7758189E-17
 -9.6700003E-04   -1.4597537E-15
 -9.6650003E-04   -3.1380805E-15
 -9.6600002E-04   -4.8512660E-15
 -9.6550002E-04   -6.4601289E-15
 -9.6500001E-04   -7.8102342E-15
 -9.6450001E-04   -8.7425455E-15
 -9.6400001E-04   -9.1062750E-15
 -9.6350000E-04   -8.7731937E-15
 -9.6300000E-04   -7.6523946E-15
 -9.6249999E-04   -5.7043150E-15
 -9.6199999E-04   -2.9526736E-15
 -9.6149999E-04    5.0704451E-16
 -9.6099998E-04    4.5038550E-15
 -9.6049998E-04    8.7933870E-15
 -9.5999998E-04    1.3066601E-14
 -9.5949997E-04    1.6965435E-14
 -9.5900003E-04    2.0105137E-14
 -9.5850002E-04    2.2102446E-14
 -9.5800002E-04    2.2608123E-14
 -9.5750001E-04    2.1341757E-14
 -9.5700001E-04    1.8126214E-14
 -9.5650001E-04    1.2918736E-14
 -9.5600000E-04    5.8355433E-15
 -9.5550000E-04   -2.8331816E-15
 -9.5500000E-04   -1.2620671E-14
 -9.5449999E-04   -2.2895419E-14
 -9.5399999E-04   -3.2888710E-14
 -9.5349998E-04   -4.1737847E-14
 -9.5299998E-04   -4.8543807E-14
 -9.5249998E-04   -5.2440623E-14
 -9.5199997E-04   -5.2672327E-14
 -9.5150003E-04   -4.8672160E-14
 -9.5100002E-04   -4.0137656E-14
 -9.5050002E-04   -2.7094687E-14
 -9.5000002E-04   -9.9434688E-15
 -9.4950001E-04    1.0519944E-14
 -9.4900001E-04    3.3112056E-14
 -9.4850000E-04    5.6303771E-14
 -9.4800000E-04    7.8297008E-14
 -9.4750000E-04    9.7134574E-14
 -9.4699999E-04    1.1083885E-13
 -9.4649999E-04    1.1757176E-13
 -9.4599999E-04    1.1580563E-13
 -9.4549998E-04    1.0449216E-13
 -9.4499998E-04    8.3215329E-14
 -9.4449997E-04    5.2313039E-14
 -9.4400003E-04    1.2953275E-14
 -9.4350002E-04   -3.2847853E-14
 -9.4300002E-04   -8.2275563E-14
 -9.4250002E-04   -1.3183837E-13
 -9.4200001E-04   -1.7756223E-13
 -9.4150001E-04   -2.1525032E-13
 -9.4100001E-04   -2.4079594E-13
 -9.4050000E-04   -2.5052931E-13
 -9.4000000E-04   -2.4157445E-13
 -9.3949999E-04   -2.1218766E-13
 -9.3899999E-04   -1.6204749E-13
 -9.3849999E-04   -9.2465830E-14
 -9.3799998E-04   -6.4928125E-15
 -9.3749998E-04    9.1107108E-14
 -9.3699998E-04    1.9402196E-13
 -9.3649997E-04    2.9470675E-13
 -9.3600003E-04    3.8483805E-13
 -9.3550002E-04    4.5588945E-13
 -9.3500002E-04    4.9979519E-13
 -9.3450001E-04    5.0965926E-13
 -9.3400001E-04    4.8045687E-13
 -9.3350001E-04    4.0967051E-13
 -9.3300000E-04    2.9780020E-13
 -9.3250000E-04    1.4869143E-13
 -9.3200000E-04   -3.0368286E-14
 -9.3149999E-04   -2.2881973E-13
 -9.3099999E-04   -4.3328728E-13
 -9.3049998E-04   -6.2831576E-13
 -9.2999998E-04   -7.9736239E-13
 -9.2949998E-04   -9.2399298E-13
 -9.2899997E-04   -9.9320931E-13
 -9.2850003E-04   -9.9281488E-13
 -9.2800002E-04   -9.1471362E-13
 -9.2750002E-04   -7.5602800E-13
 -9.2700002E-04   -5.1992563E-13
 -9.2650001E-04   -2.1605531E-13
 -9.2600001E-04    1.3948716E-13
 -9.2550000E-04    5.2471314E-13
 -9.2500000E-04    9.1282765E-13
 -9.2450000E-04    1.2738202E-12
 -9.2399999E-04    1.5764876E-12
 -9.2349999E-04    1.7907709E-12
 -9.2299999E-04    1.8902560E-12
 -9.2249998E-04    1.8546534E-12
 -9.2199998E-04    1.6720556E-12
 -9.2149997E-04    1.3407695E-12
 -9.2100003E-04    8.7053178E-13
 -9.2050002E-04    2.8294608E-13
 -9.2000002E-04   -3.8897303E-13
 -9.1950002E-04   -1.1022057E-12
 -9.1900001E-04   -1.8060657E-12
 -9.1850001E-04   -2.4453822E-12
 -9.1800001E-04   -2.9643549E-12
 -9.1750000E-04   -3.3108451E-12
 -9.1700000E-04   -3.4408058E-12
 -9.1649999E-04   -3.3225102E-12
 -9.1599999E-04   -2.9402303E-12
 -9.1549999E-04   -2.2970163E-12
 -9.1499998E-04   -1.4162760E-12
 -9.1449998E-04   -3.4191194E-13
 -9.1399997E-04    8.6312522E-13
 -9.1349997E-04    2.1199062E-12
 -9.1300003E-04    3.3381175E-12
 -9.1250002E-04    4.4219654E-12
 -9.1200002E-04    5.2770405E-12
 -9.1150001E-04    5.8176949E-12
 -9.1100001E-04    5.9743963E-12
 -9.1050001E-04    5.7004896E-12
 -9.1000000E-04    4.9777769E-12
 -9.0950000E-04    3.8203906E-12
 -9.0899999E-04    2.2765056E-12
 -9.0849999E-04    4.2757811E-13
 -9.0799999E-04   -1.6150332E-12
 -9.0749998E-04   -3.7160197E-12
 -9.0699998E-04   -5.7243940E-12
 -9.0649998E-04   -7.4836292E-12
 -9.0599997E-04   -8.8430270E-12
 -9.0550003E-04   -9.6695421E-12
 -9.0500002E-04   -9.8591734E-12
 -9.0450002E-04   -9.3470327E-12
 -9.0400001E-04   -8.1151995E-12
 -9.0350001E-04   -6.1976123E-12
 -9.0300001E-04   -3.6813998E-12
 -9.0250000E-04   -7.0429166E-13
 -9.0200000E-04    2.5519597E-12
 -9.0150000E-04    5.8719297E-12
 -9.0099999E-04    9.0201110E-12
 -9.0049999E-04    1.1756928E-11
 -8.9999998E-04    1.3856120E-11
 -8.9949998E-04    1.5122273E-11
 -8.9899998E-04    1.5407177E-11
 -8.9849997E-04    1.4623714E-11
 -8.9800003E-04    1.2756077E-11
 -8.9750002E-04    9.8653429E-12
 -8.9700002E-04    6.0897056E-12
 -8.9650002E-04    1.6390652E-12
 -8.9600001E-04   -3.2159457E-12
 -8.9550001E-04   -8.1599692E-12
 -8.9500000E-04   -1.2853042E-11
 -8.9450000E-04   -1.6953546E-11
 -8.9400000E-04   -2.0142438E-11
 -8.9349999E-04   -2.2147026E-11
 -8.9299999E-04   -2.2762549E-11
 -8.9249999E-04   -2.1869881E-11
 -8.9199998E-04   -1.9447909E-11
 -8.9149998E-04   -1.5579484E-11
 -8.9099997E-04   -1.0450283E-11
 -8.9050003E-04   -4.3403905E-12
 -8.9000002E-04    2.3910110E-12
 -8.8950002E-04    9.3269862E-12
 -8.8900002E-04    1.6018879E-11
 -8.8850001E-04    2.2015327E-11
 -8.8800001E-04    2.6892299E-11
 -8.8750001E-04    3.0282086E-11
 -8.8700000E-04    3.1899233E-11
 -8.8650000E-04    3.1561597E-11
 -8.8599999E-04    2.9205027E-11
 -8.8549999E-04    2.4890624E-11
 -8.8499999E-04    1.8804078E-11
 -8.8449998E-04    1.1247074E-11
 -8.8399998E-04    2.6213476E-12
 -8.8349998E-04   -6.5935564E-12
 -8.8299997E-04   -1.5867377E-11
 -8.8250003E-04   -2.4649343E-11
 -8.8200002E-04   -3.2399635E-11
 -8.8150002E-04   -3.8620204E-11
 -8.8100001E-04   -4.2883225E-11
 -8.8050001E-04   -4.4855668E-11
 -8.8000001E-04   -4.4318833E-11
 -8.7950000E-04   -4.1182023E-11
 -8.7900000E-04   -3.5489958E-11
 -8.7850000E-04   -2.7423864E-11
 -8.7799999E-04   -1.7296475E-11
 -8.7749999E-04   -5.5413989E-12
 -8.7699998E-04    7.3025752E-12
 -8.7649998E-04    2.0611575E-11
 -8.7599998E-04    3.3700549E-11
 -8.7549997E-04    4.5850417E-11
 -8.7500003E-04    5.6337948E-11
 -8.7450002E-04    6.4467903E-11
 -8.7400002E-04    6.9606883E-11
 -8.7350002E-04    7.1218288E-11
 -8.7300001E-04    6.8897381E-11
 -8.7250001E-04    6.2405317E-11
 -8.7200000E-04    5.1700443E-11
 -8.7150000E-04    3.6964820E-11
 -8.7100000E-04    1.8623554E-11
 -8.7049999E-04   -2.6458193E-12
 -8.6999999E-04   -2.5916592E-11
 -8.6949999E-04   -5.0031389E-11
 -8.6899998E-04   -7.3637957E-11
 -8.6849998E-04   -9.5243397E-11
 -8.6799997E-04   -1.1328678E-10
 -8.6750003E-04   -1.2622861E-10
 -8.6700002E-04   -1.3265378E-10
 -8.6650002E-04   -1.3138300E-10
 -8.6600002E-04   -1.2158585E-10
 -8.6550001E-04   -1.0288705E-10
 -8.6500001E-04   -7.5456801E-11
 -8.6450001E-04   -4.0075471E-11
 -8.6400000E-04    1.8365587E-12
 -8.6350000E-04    4.8231859E-11
 -8.6299999E-04    9.6497345E-11
 -8.6249999E-04    1.4356666E-10
 -8.6199999E-04    1.8608240E-10
 -8.6149998E-04    2.2060254E-10
 -8.6099998E-04    2.4384111E-10
 -8.6049997E-04    2.5292893E-10
 -8.5999997E-04    2.4567628E-10
 -8.5950003E-04    2.2081724E-10
 -8.5900002E-04    1.7821356E-10
 -8.5850002E-04    1.1899701E-10
 -8.5800001E-04    4.5631013E-11
 -8.5750001E-04   -3.8123282E-11
 -8.5700001E-04   -1.2734515E-10
 -8.5650000E-04   -2.1619806E-10
 -8.5600000E-04   -2.9827182E-10
 -8.5549999E-04   -3.6700684E-10
 -8.5499999E-04   -4.1617601E-10
 -8.5449999E-04   -4.4039167E-10
 -8.5399998E-04   -4.3559997E-10
 -8.5349998E-04   -3.9952155E-10
 -8.5299998E-04   -3.3199771E-10
 -8.5249997E-04   -2.3520449E-10
 -8.5200003E-04   -1.1370437E-10
 -8.5150002E-04    2.5684940E-11
 -8.5100002E-04    1.7421140E-10
 -8.5050002E-04    3.2169192E-10
 -8.5000001E-04    4.5717424E-10
 -8.4950001E-04    5.6971877E-10
 -8.4900000E-04    6.4924799E-10
 -8.4850000E-04    6.8740086E-10
 -8.4800000E-04    6.7832290E-10
 -8.4749999E-04    6.1932293E-10
 -8.4699999E-04    5.1133064E-10
 -8.4649998E-04    3.5910191E-10
 -8.4599998E-04    1.7113339E-10
 -8.4549998E-04   -4.0730058E-11
 -8.4499997E-04   -2.6198765E-10
 -8.4450003E-04   -4.7644205E-10
 -8.4400002E-04   -6.6736744E-10
 -8.4350002E-04   -8.1880619E-10
 -8.4300002E-04   -9.1689700E-10
 -8.4250001E-04   -9.5112640E-10
 -8.4200001E-04   -9.1539415E-10
 -8.4150000E-04   -8.0878998E-10
 -8.4100000E-04   -6.3599576E-10
 -8.4050000E-04   -4.0725226E-10
 -8.3999999E-04   -1.3786233E-10
 -8.3949999E-04    1.5276053E-10
 -8.3899999E-04    4.4244960E-10
 -8.3849998E-04    7.0796147E-10
 -8.3799998E-04    9.2685093E-10
 -8.3749997E-04    1.0793975E-09
 -8.3700003E-04    1.1504221E-09
 -8.3650002E-04    1.1308302E-09
 -8.3600002E-04    1.0187287E-09
 -8.3550002E-04    8.1999152E-10
 -8.3500001E-04    5.4818716E-10
 -8.3450001E-04    2.2383070E-10
 -8.3400001E-04   -1.2701928E-10
 -8.3350000E-04   -4.7474047E-10
 -8.3300000E-04   -7.8856743E-10
 -8.3249999E-04   -1.0392684E-09
 -8.3199999E-04   -1.2018577E-09
 -8.3149999E-04   -1.2581032E-09
 -8.3099998E-04   -1.1985897E-09
 -8.3049998E-04   -1.0241207E-09
 -8.2999998E-04   -7.4628337E-10
 -8.2949997E-04   -3.8706599E-10
 -8.2900003E-04    2.2508856E-11
 -8.2850002E-04    4.4468282E-10
 -8.2800002E-04    8.3805318E-10
 -8.2750001E-04    1.1612346E-09
 -8.2700001E-04    1.3767988E-09
 -8.2650001E-04    1.4551528E-09
 -8.2600000E-04    1.3779918E-09
 -8.2550000E-04    1.1409748E-09
 -8.2500000E-04    7.5531004E-10
 -8.2449999E-04    2.4801444E-10
 -8.2399999E-04   -3.3929259E-10
 -8.2349998E-04   -9.5307451E-10
 -8.2299998E-04   -1.5319244E-09
 -8.2249998E-04   -2.0117203E-09
 -8.2199997E-04   -2.3315141E-09
 -8.2150003E-04   -2.4396773E-09
 -8.2100002E-04   -2.2997670E-09
 -8.2050002E-04   -1.8955424E-09
 -8.2000002E-04   -1.2345998E-09
 -8.1950001E-04   -3.5016229E-10
 -8.1900001E-04    6.9931366E-10
 -8.1850000E-04    1.8328865E-09
 -8.1800000E-04    2.9522087E-09
 -8.1750000E-04    3.9487063E-09
 -8.1699999E-04    4.7124145E-09
 -8.1649999E-04    5.1418430E-09
 -8.1599999E-04    5.1540883E-09
 -8.1549998E-04    4.6943258E-09
 -8.1499998E-04    3.7437782E-09
 -8.1449997E-04    2.3253126E-09
 -8.1400003E-04    5.0594950E-10
 -8.1350002E-04   -1.6042396E-09
 -8.1300002E-04   -3.8570942E-09
 -8.1250002E-04   -6.0751288E-09
 -8.1200001E-04   -8.0637150E-09
 -8.1150001E-04   -9.6259507E-09
 -8.1100001E-04   -1.0579212E-08
 -8.1050000E-04   -1.0772138E-08
 -8.1000000E-04   -1.0100639E-08
 -8.0949999E-04   -8.5215035E-09
 -8.0899999E-04   -6.0622130E-09
 -8.0849999E-04   -2.8258187E-09
 -8.0799998E-04    1.0100001E-09
 -8.0749998E-04    5.2001408E-09
 -8.0699997E-04    9.4455155E-09
 -8.0649997E-04    1.3412173E-08
 -8.0600003E-04    1.6755044E-08
 -8.0550002E-04    1.9144764E-08
 -8.0500002E-04    2.0295678E-08
 -8.0450001E-04    1.9992822E-08
 -8.0400001E-04    1.8115633E-08
 -8.0350001E-04    1.4656191E-08
 -8.0300000E-04    9.7300461E-09
 -8.0250000E-04    3.5781746E-09
 -8.0200000E-04   -3.4408640E-09
 -8.0149999E-04   -1.0868719E-08
 -8.0099999E-04   -1.8174399E-08
 -8.0049998E-04   -2.4789379E-08
 -7.9999998E-04   -3.0148538E-08
 -7.9949998E-04   -3.3734150E-08
 -7.9899997E-04   -3.5119729E-08
 -7.9850003E-04   -3.4010299E-08
 -7.9800002E-04   -3.0275643E-08
 -7.9750002E-04   -2.3973467E-08
 -7.9700002E-04   -1.5359902E-08
 -7.9650001E-04   -4.8856039E-09
 -7.9600001E-04    6.8232797E-09
 -7.9550000E-04    1.8998922E-08
 -7.9500000E-04    3.0778857E-08
 -7.9450000E-04    4.1263593E-08
 -7.9399999E-04    4.9581146E-08
 -7.9349999E-04    5.4954057E-08
 -7.9299998E-04    5.6764030E-08
 -7.9249998E-04    5.4609092E-08
 -7.9199998E-04    4.8348554E-08
 -7.9149997E-04    3.8131553E-08
 -7.9100003E-04    2.4406035E-08
 -7.9050002E-04    7.9062232E-09
 -7.9000002E-04   -1.0381779E-08
 -7.8950002E-04   -2.9275089E-08
 -7.8900001E-04   -4.7467005E-08
 -7.8850001E-04   -6.3613534E-08
 -7.8800000E-04   -7.6427902E-08
 -7.8750000E-04   -8.4776637E-08
 -7.8700000E-04   -8.7770232E-08
 -7.8649999E-04   -8.4841588E-08
 -7.8599999E-04   -7.5805779E-08
 -7.8549999E-04   -6.0895879E-08
 -7.8499998E-04   -4.0770974E-08
 -7.8449998E-04   -1.6494354E-08
 -7.8399997E-04    1.0518121E-08
 -7.8350003E-04    3.8577269E-08
 -7.8300002E-04    6.5823173E-08
 -7.8250002E-04    9.0344997E-08
 -7.8200002E-04    1.1031042E-07
 -7.8150001E-04    1.2409595E-07
 -7.8100001E-04    1.3040919E-07
 -7.8050001E-04    1.2839403E-07
 -7.8000000E-04    1.1771083E-07
 -7.7950000E-04    9.8584863E-08
 -7.7899999E-04    7.1818590E-08
 -7.7849999E-04    3.8765197E-08
 -7.7799999E-04    1.2638388E-09
 -7.7749998E-04   -3.8460531E-08
 -7.7699998E-04   -7.7927311E-08
 -7.7649998E-04   -1.1455271E-07
 -7.7599997E-04   -1.4581511E-07
 -7.7550003E-04   -1.6942276E-07
 -7.7500002E-04   -1.8347281E-07
 -7.7450002E-04   -1.8659081E-07
 -7.7400001E-04   -1.7804108E-07
 -7.7350001E-04   -1.5779969E-07
 -7.7300001E-04   -1.2658434E-07
 -7.7250000E-04   -8.5837890E-08
 -7.7200000E-04   -3.7665291E-08
 -7.7150000E-04    1.5273365E-08
 -7.7099999E-04    6.9908083E-08
 -7.7049999E-04    1.2293441E-07
 -7.6999998E-04    1.7100894E-07
 -7.6949998E-04    2.1095333E-07
 -7.6899998E-04    2.3995457E-07
 -7.6849997E-04    2.5574911E-07
 -7.6800003E-04    2.5677971E-07
 -7.6750002E-04    2.4231457E-07
 -7.6700002E-04    2.1252121E-07
 -7.6650002E-04    1.6848963E-07
 -7.6600001E-04    1.1220202E-07
 -7.6550001E-04    4.6449770E-08
 -7.6500000E-04   -2.5298746E-08
 -7.6450000E-04   -9.9073567E-08
 -7.6400000E-04   -1.7061271E-07
 -7.6349999E-04   -2.3559546E-07
 -7.6299999E-04   -2.8988700E-07
 -7.6249999E-04   -3.2978147E-07
 -7.6199998E-04   -3.5223050E-07
 -7.6149998E-04   -3.5504414E-07
 -7.6099997E-04   -3.3705305E-07
 -7.6050003E-04   -2.9822166E-07
 -7.6000002E-04   -2.3970478E-07
 -7.5950002E-04   -1.6384205E-07
 -7.5900002E-04   -7.4088220E-08
 -7.5850001E-04    2.5120443E-08
 -7.5800001E-04    1.2855980E-07
 -7.5750001E-04    2.3046456E-07
 -7.5700000E-04    3.2481844E-07
 -7.5650000E-04    4.0567511E-07
 -7.5599999E-04    4.6749525E-07
 -7.5549999E-04    5.0548300E-07
 -7.5499999E-04    5.1590388E-07
 -7.5449998E-04    4.9636623E-07
 -7.5399998E-04    4.4604835E-07
 -7.5349997E-04    3.6585445E-07
 -7.5299997E-04    2.5848587E-07
 -7.5250003E-04    1.2841642E-07
 -7.5200002E-04   -1.8234829E-08
 -7.5150002E-04   -1.7393468E-07
 -7.5100001E-04   -3.3006680E-07
 -7.5050001E-04   -4.7735244E-07
 -7.5000001E-04   -6.0634454E-07
 -7.4950000E-04   -7.0797256E-07
 -7.4900000E-04   -7.7411141E-07
 -7.4850000E-04   -7.9814157E-07
 -7.4799999E-04   -7.7546736E-07
 -7.4749999E-04   -7.0395697E-07
 -7.4699998E-04   -5.8427128E-07
 -7.4649998E-04   -4.2005064E-07
 -7.4599998E-04   -2.1793500E-07