 -1.2000001E-03    1.0000000E-24
 -1.1995001E-03    1.0000000E-24
 -1.1990000E-03    1.0000000E-24
 -1.1985000E-03    1.0000000E-24
 -1.1980000E-03    1.0000000E-24
 -1.1975000E-03    1.0000000E-24
 -1.1970000E-03    1.0000000E-24
 -1.1965000E-03    1.0000000E-24
 -1.1960000E-03    1.0000000E-24
 -1.1955000E-03    1.0000001E-24
 -1.1950000E-03    1.0000002E-24
 -1.1945000E-03    1.0000002E-24
 -1.1940000E-03    1.0000002E-24
 -1.1935000E-03    1.0000002E-24
 -1.1930000E-03    1.0000002E-24
 -1.1925000E-03    1.0000002E-24
 -1.1920000E-03    1.0000002E-24
 -1.1915000E-03    1.0000002E-24
 -1.1910000E-03    1.0000002E-24
 -1.1905000E-03    1.0000002E-24
 -1.1900000E-03    1.0000002E-24
 -1.1895000E-03    1.0000002E-24
 -1.1890000E-03    1.0000002E-24
 -1.1885000E-03    1.0000002E-24
 -1.1880000E-03    1.0000002E-24
 -1.1875000E-03    1.0000002E-24
 -1.1870000E-03    1.0000002E-24
 -1.1865000E-03    1.0000002E-24
 -1.1860000E-03    1.0000002E-24
 -1.1854999E-03    1.0000002E-24
 -1.1849999E-03    1.0000001E-24
 -1.1845001E-03    1.0000000E-24
 -1.1840001E-03    1.0000000E-24
 -1.1835000E-03    1.0000000E-24
 -1.1830000E-03    1.0000000E-24
 -1.1825000E-03    1.0000000E-24
 -1.1820000E-03    1.0000000E-24
 -1.1815000E-03    1.0000000E-24
 -1.1810000E-03    1.0000000E-24
 -1.1805000E-03    1.0000000E-24
 -1.1800000E-03    1.0000000E-24
 -1.1795000E-03    1.0000001E-24
 -1.1790000E-03    1.0000002E-24
 -1.1785000E-03    1.0000003E-24
 -1.1780000E-03    1.0000003E-24
 -1.1775000E-03    1.0000003E-24
 -1.1770000E-03    1.0000003E-24
 -1.1765000E-03    1.0000003E-24
 -1.1760000E-03    1.0000003E-24
 -1.1755000E-03    1.0000003E-24
 -1.1750000E-03    1.0000002E-24
 -1.1745000E-03    1.0000001E-24
 -1.1740000E-03    1.0000000E-24
 -1.1735000E-03    9.9999992E-25
 -1.1730000E-03    9.9999992E-25
 -1.1725000E-03    9.9999992E-25
 -1.1720000E-03    9.9999992E-25
 -1.1715000E-03    9.9999992E-25
 -1.1710000E-03    9.9999992E-25
 -1.1704999E-03    1.0000000E-24
 -1.1699999E-03    1.0000001E-24
 -1.1695001E-03    1.0000003E-24
 -1.1690001E-03    1.0000006E-24
 -1.1685000E-03    1.0000010E-24
 -1.1680000E-03    1.0000015E-24
 -1.1675000E-03    1.0000022E-24
 -1.1670000E-03    1.0000030E-24
 -1.1665000E-03    1.0000038E-24
 -1.1660000E-03    1.0000044E-24
 -1.1655000E-03    1.0000044E-24
 -1.1650000E-03    1.0000029E-24
 -1.1645000E-03    9.9999874E-25
 -1.1640000E-03    9.9998976E-25
 -1.1635000E-03    9.9997290E-25
 -1.1630000E-03    9.9994381E-25
 -1.1625000E-03    9.9989688E-25
 -1.1620000E-03    9.9982529E-25
 -1.1615000E-03    9.9972175E-25
 -1.1610000E-03    9.9957985E-25
 -1.1605000E-03    9.9939664E-25
 -1.1600000E-03    9.9917724E-25
 -1.1595000E-03    9.9894176E-25
 -1.1590000E-03    9.9873449E-25
 -1.1585000E-03    9.9863657E-25
 -1.1580000E-03    9.9878231E-25
 -1.1575000E-03    9.9937623E-25
 -1.1570000E-03    1.0007097E-24
 -1.1565000E-03    1.0031742E-24
 -1.1560000E-03    1.0072607E-24
 -1.1555000E-03    1.0135391E-24
 -1.1549999E-03    1.0226011E-24
 -1.1544999E-03    1.0349513E-24
 -1.1540001E-03    1.0508261E-24
 -1.1535001E-03    1.0699221E-24
 -1.1530000E-03    1.0910150E-24
 -1.1525000E-03    1.1114651E-24
 -1.1520000E-03    1.1266158E-24
 -1.1515000E-03    1.1291289E-24
 -1.1510000E-03    1.1083294E-24
 -1.1505000E-03    1.0497009E-24
 -1.1500000E-03    9.3472898E-25
 -1.1495000E-03    7.4137414E-25
 -1.1490000E-03    4.4553173E-25
 -1.1485000E-03    2.3902482E-26
 -1.1480000E-03   -5.4126656E-25
 -1.1475000E-03   -1.2551389E-24
 -1.1470000E-03   -2.1006240E-24
 -1.1465000E-03   -3.0260199E-24
 -1.1460000E-03   -3.9303082E-24
 -1.1455000E-03   -4.6470553E-24
 -1.1450000E-03   -4.9287166E-24
 -1.1445000E-03   -4.4341749E-24
 -1.1440000E-03   -2.7235734E-24
 -1.1435000E-03    7.3423490E-25
 -1.1430000E-03    6.5351131E-24
 -1.1425000E-03    1.5286613E-23
 -1.1420000E-03    2.7521019E-23
 -1.1415000E-03    4.3567942E-23
 -1.1410000E-03    6.3382361E-23
 -1.1405000E-03    8.6328577E-23
 -1.1399999E-03    1.1092737E-22
 -1.1394999E-03    1.3458322E-22
 -1.1390001E-03    1.5332049E-22
 -1.1385001E-03    1.6157226E-22
 -1.1380001E-03    1.5208058E-22
 -1.1375000E-03    1.1598271E-22
 -1.1370000E-03    4.3169987E-23
 -1.1365000E-03   -7.6987403E-23
 -1.1360000E-03   -2.5445982E-22
 -1.1355000E-03   -4.9684974E-22
 -1.1350000E-03   -8.0712022E-22
 -1.1345000E-03   -1.1807835E-21
 -1.1340000E-03   -1.6026591E-21
 -1.1335000E-03   -2.0434205E-21
 -1.1330000E-03   -2.4562854E-21
 -1.1325000E-03   -2.7743513E-21
 -1.1320000E-03   -2.9092356E-21
 -1.1315000E-03   -2.7518128E-21
 -1.1310000E-03   -2.1759410E-21
 -1.1305000E-03   -1.0460890E-21
 -1.1300000E-03    7.7029887E-22
 -1.1295000E-03    3.3850963E-21
 -1.1290000E-03    6.8662413E-21
 -1.1285000E-03    1.1209326E-20
 -1.1280000E-03    1.6305244E-20
 -1.1275000E-03    2.1906108E-20
 -1.1270000E-03    2.7592787E-20
 -1.1265000E-03    3.2748701E-20
 -1.1260000E-03    3.6545615E-20
 -1.1255000E-03    3.7948151E-20
 -1.1250000E-03    3.5744384E-20
 -1.1244999E-03    2.8609541E-20
 -1.1239999E-03    1.5209079E-20
 -1.1235001E-03   -5.6548696E-21
 -1.1230001E-03   -3.4853139E-20
 -1.1225000E-03   -7.2699411E-20
 -1.1220000E-03   -1.1869085E-19
 -1.1215000E-03   -1.7123719E-19
 -1.1210000E-03   -2.2740415E-19
 -1.1205000E-03   -2.8270510E-19
 -1.1200000E-03   -3.3098226E-19
 -1.1195000E-03   -3.6442391E-19
 -1.1190000E-03   -3.7376645E-19
 -1.1185000E-03   -3.4872673E-19
 -1.1180000E-03   -2.7870271E-19
 -1.1175000E-03   -1.5376313E-19
 -1.1170000E-03    3.4075395E-20
 -1.1165000E-03    2.8931779E-19
 -1.1160000E-03    6.1127908E-19
 -1.1155000E-03    9.9230820E-19
 -1.1150000E-03    1.4161104E-18
 -1.1145000E-03    1.8563759E-18
 -1.1140000E-03    2.2759579E-18
 -1.1135000E-03    2.6268696E-18
 -1.1130000E-03    2.8513710E-18
 -1.1125000E-03    2.8843916E-18
 -1.1120000E-03    2.6574790E-18
 -1.1115000E-03    2.1043692E-18
 -1.1110000E-03    1.1681345E-18
 -1.1105000E-03   -1.9029391E-19
 -1.1100000E-03   -1.9826531E-18
 -1.1094999E-03   -4.1835516E-18
 -1.1089999E-03   -6.7212118E-18
 -1.1084999E-03   -9.4698184E-18
 -1.1080001E-03   -1.2244691E-17
 -1.1075001E-03   -1.4801595E-17
 -1.1070000E-03   -1.6841472E-17
 -1.1065000E-03   -1.8021723E-17
 -1.1060000E-03   -1.7974889E-17
 -1.1055000E-03   -1.6335063E-17
 -1.1050000E-03   -1.2771770E-17
 -1.1045000E-03   -7.0302411E-18
 -1.1040000E-03    1.0238781E-18
 -1.1035000E-03    1.1358284E-17
 -1.1030000E-03    2.3730098E-17
 -1.1025000E-03    3.7648914E-17
 -1.1020000E-03    5.2352036E-17
 -1.1015000E-03    6.6797429E-17
 -1.1010000E-03    7.9679635E-17
 -1.1005000E-03    8.9473275E-17
 -1.1000000E-03    9.4507304E-17
 -1.0995000E-03    9.3071358E-17
 -1.0990000E-03    8.3552892E-17
 -1.0985000E-03    6.4600788E-17
 -1.0980000E-03    3.5307675E-17
 -1.0975000E-03   -4.6002533E-18
 -1.0970000E-03   -5.4580543E-17
 -1.0965000E-03   -1.1311641E-16
 -1.0960000E-03   -1.7760260E-16
 -1.0955000E-03   -2.4429560E-16
 -1.0950000E-03   -3.0834723E-16
 -1.0945000E-03   -3.6393813E-16
 -1.0939999E-03   -4.0452377E-16
 -1.0934999E-03   -4.2319722E-16
 -1.0930001E-03   -4.1316573E-16
 -1.0925001E-03   -3.6832712E-16
 -1.0920000E-03   -2.8392139E-16
 -1.0915000E-03   -1.5722068E-16
 -1.0910000E-03    1.1789799E-17
 -1.0905000E-03    2.1979618E-16
 -1.0900000E-03    4.5966969E-16
 -1.0895000E-03    7.2017568E-16
 -1.0890000E-03    9.8594254E-16
 -1.0885000E-03    1.2377478E-15
 -1.0880000E-03    1.4531653E-15
 -1.0875000E-03    1.6075991E-15
 -1.0870000E-03    1.6757041E-15
 -1.0865000E-03    1.6331631E-15
 -1.0860000E-03    1.4587602E-15
 -1.0855000E-03    1.1366516E-15
 -1.0850000E-03    6.5870438E-16
 -1.0845000E-03    2.6740326E-17
 -1.0840000E-03   -7.4549916E-16
 -1.0835000E-03   -1.6308723E-15
 -1.0830000E-03   -2.5880446E-15
 -1.0825000E-03   -3.5615830E-15
 -1.0820000E-03   -4.4831086E-15
 -1.0815000E-03   -5.2736364E-15
 -1.0810000E-03   -5.8471743E-15
 -1.0805000E-03   -6.1155741E-15
 -1.0800000E-03   -5.9945394E-15
 -1.0795000E-03   -5.4105962E-15
 -1.0790000E-03   -4.3087190E-15
 -1.0784999E-03   -2.6601985E-15
 -1.0779999E-03   -4.7024490E-16
 -1.0775001E-03    2.2152899E-15
 -1.0770001E-03    5.3047247E-15
 -1.0765000E-03    8.6576000E-15
 -1.0760000E-03    1.2084658E-14
 -1.0755000E-03    1.5351366E-14
 -1.0750000E-03    1.8185508E-14
 -1.0745000E-03    2.0289145E-14
 -1.0740000E-03    2.1355044E-14
 -1.0735000E-03    2.1087319E-14
 -1.0730000E-03    1.9225696E-14
 -1.0725000E-03    1.5572413E-14
 -1.0720000E-03    1.0020279E-14
 -1.0715000E-03    2.5801070E-15
 -1.0710000E-03   -6.5947559E-15
 -1.0705000E-03   -1.7189270E-14
 -1.0700000E-03   -2.8715620E-14
 -1.0695000E-03   -4.0512857E-14
 -1.0690000E-03   -5.1759724E-14
 -1.0685000E-03   -6.1502608E-14
 -1.0680000E-03   -6.8699861E-14
 -1.0675000E-03   -7.2282648E-14
 -1.0670000E-03   -7.1231324E-14
 -1.0665000E-03   -6.4664521E-14
 -1.0660000E-03   -5.1936967E-14
 -1.0655000E-03   -3.2739866E-14
 -1.0650000E-03   -7.1965232E-15
 -1.0645000E-03    2.4055732E-14
 -1.0640000E-03    5.9806916E-14
 -1.0634999E-03    9.8248924E-14
 -1.0629999E-03    1.3699271E-13
 -1.0625001E-03    1.7313573E-13
 -1.0620001E-03    2.0338512E-13
 -1.0615001E-03    2.2423852E-13
 -1.0610000E-03    2.3221949E-13
 -1.0605000E-03    2.2416007E-13
 -1.0600000E-03    1.9751654E-13
 -1.0595000E-03    1.5069913E-13
 -1.0590000E-03    8.3391112E-14
 -1.0585000E-03   -3.1716903E-15
 -1.0580000E-03   -1.0599251E-13
 -1.0575000E-03   -2.2020828E-13
 -1.0570000E-03   -3.3911703E-13
 -1.0565000E-03   -4.5436213E-13
 -1.0560000E-03   -5.5628934E-13
 -1.0555000E-03   -6.3447999E-13
 -1.0550000E-03   -6.7845035E-13
 -1.0545000E-03   -6.7848955E-13
 -1.0540000E-03   -6.2659199E-13
 -1.0535000E-03   -5.1742378E-13
 -1.0530000E-03   -3.4924613E-13
 -1.0525000E-03   -1.2471130E-13
 -1.0520000E-03    1.4856198E-13
 -1.0515000E-03    4.5772170E-13
 -1.0510000E-03    7.8480386E-13
 -1.0505000E-03    1.1073011E-12
 -1.0500000E-03    1.3992105E-12
 -1.0495000E-03    1.6325555E-12
 -1.0490000E-03    1.7793349E-12
 -1.0485000E-03    1.8138075E-12
 -1.0479999E-03    1.7149729E-12
 -1.0474999E-03    1.4690732E-12
 -1.0470001E-03    1.0719008E-12
 -1.0465001E-03    5.3068482E-13
 -1.0460000E-03   -1.3467423E-13
 -1.0455000E-03   -8.9123538E-13
 -1.0450000E-03   -1.6936843E-12
 -1.0445000E-03   -2.4861439E-12
 -1.0440000E-03   -3.2051549E-12
 -1.0435000E-03   -3.7837481E-12
 -1.0430000E-03   -4.1564321E-12
 -1.0425000E-03   -4.2647999E-12
 -1.0420000E-03   -4.0633642E-12
 -1.0415000E-03   -3.5251517E-12
 -1.0410000E-03   -2.6465362E-12
 -1.0405000E-03   -1.4507743E-12
 -1.0400000E-03    1.0245224E-14
 -1.0395000E-03    1.6564473E-12
 -1.0390000E-03    3.3824840E-12
 -1.0385000E-03    5.0631981E-12
 -1.0380000E-03    6.5615131E-12
 -1.0375000E-03    7.7383759E-12
 -1.0370000E-03    8.4641539E-12
 -1.0365000E-03    8.6306648E-12
 -1.0360000E-03    8.1628497E-12
 -1.0355000E-03    7.0290015E-12
 -1.0350000E-03    5.2484362E-12
 -1.0345000E-03    2.8956076E-12
 -1.0340000E-03    9.9827075E-14
 -1.0335000E-03   -2.9599177E-12
 -1.0329999E-03   -6.0651779E-12
 -1.0324999E-03   -8.9729595E-12
 -1.0319999E-03   -1.1434526E-11
 -1.0315001E-03   -1.3216791E-11
 -1.0310001E-03   -1.4124585E-11
 -1.0305000E-03   -1.4021815E-11
 -1.0300000E-03   -1.2849310E-11
 -1.0295000E-03   -1.0637289E-11
 -1.0290000E-03   -7.5105581E-12
 -1.0285000E-03   -3.6850930E-12
 -1.0280000E-03    5.4469358E-13
 -1.0275000E-03    4.8278287E-12
 -1.0270000E-03    8.7866858E-12
 -1.0265000E-03    1.2052833E-11
 -1.0260000E-03    1.4305853E-11
 -1.0255000E-03    1.5311433E-11
 -1.0250000E-03    1.4954595E-11
 -1.0245000E-03    1.3263893E-11
 -1.0240000E-03    1.0422713E-11
 -1.0235000E-03    6.7647055E-12
 -1.0230000E-03    2.7515581E-12
 -1.0225000E-03   -1.0669794E-12
 -1.0220000E-03   -4.1090382E-12
 -1.0215000E-03   -5.8287377E-12
 -1.0210000E-03   -5.7907242E-12
 -1.0205000E-03   -3.7437870E-12
 -1.0200000E-03    3.1492379E-13
 -1.0195000E-03    6.0939201E-12
 -1.0190000E-03    1.2988021E-11
 -1.0185000E-03    2.0092516E-11
 -1.0180000E-03    2.6255307E-11
 -1.0174999E-03    3.0168170E-11
 -1.0169999E-03    3.0494256E-11
 -1.0165001E-03    2.6024493E-11
 -1.0160001E-03    1.5851204E-11
 -1.0155000E-03   -4.5674510E-13
 -1.0150000E-03   -2.2695970E-11
 -1.0145000E-03   -4.9908064E-11
 -1.0140000E-03   -8.0316705E-11
 -1.0135000E-03   -1.1134009E-10
 -1.0130000E-03   -1.3969211E-10
 -1.0125000E-03   -1.6157868E-10
 -1.0120000E-03   -1.7298749E-10
 -1.0115000E-03   -1.7005913E-10
 -1.0110000E-03   -1.4951784E-10
 -1.0105000E-03   -1.0912931E-10
 -1.0100000E-03   -4.8145210E-11
 -1.0095000E-03    3.2312326E-11
 -1.0090000E-03    1.2897554E-10
 -1.0085000E-03    2.3631216E-10
 -1.0080000E-03    3.4660361E-10
 -1.0075000E-03    4.5024820E-10
 -1.0070000E-03    5.3630184E-10
 -1.0065000E-03    5.9324662E-10
 -1.0060000E-03    6.0995636E-10
 -1.0055000E-03    5.7680161E-10
 -1.0050000E-03    4.8681625E-10
 -1.0045000E-03    3.3682745E-10
 -1.0040000E-03    1.2843779E-10
 -1.0035000E-03   -1.3125624E-10
 -1.0030000E-03   -4.2931977E-10
 -1.0025000E-03   -7.4710343E-10
 -1.0019999E-03   -1.0609025E-09
 -1.0014999E-03   -1.3431798E-09
 -1.0010001E-03   -1.5643349E-09
 -1.0005001E-03   -1.6949476E-09
 -1.0000000E-03   -1.7083750E-09
 -9.9950004E-04   -1.5835229E-09
 -9.9900004E-04   -1.3075769E-09
 -9.9850004E-04   -8.7844398E-10
 -9.9800003E-04   -3.0664393E-10
 -9.9750003E-04    3.8359640E-10
 -9.9700002E-04    1.1542665E-09
 -9.9650002E-04    1.9546702E-09
 -9.9600002E-04    2.7237790E-09
 -9.9550001E-04    3.3938226E-09
 -9.9500001E-04    3.8949861E-09
 -9.9450001E-04    4.1609698E-09
 -9.9400000E-04    4.1350594E-09
 -9.9350000E-04    3.7762575E-09
 -9.9299999E-04    3.0649583E-09
 -9.9249999E-04    2.0076236E-09
 -9.9199999E-04    6.3991995E-10
 -9.9149998E-04   -9.7216024E-10
 -9.9099998E-04   -2.7335598E-09
 -9.9049998E-04   -4.5240176E-09
 -9.8999997E-04   -6.2045449E-09
 -9.8949997E-04   -7.6263271E-09
 -9.8899996E-04   -8.6416048E-09
 -9.8849996E-04   -9.1158965E-09
 -9.8799996E-04   -8.9406980E-09
 -9.8749995E-04   -8.0456708E-09
 -9.8699995E-04   -6.4092252E-09
 -9.8649994E-04   -4.0664294E-09
 -9.8600006E-04   -1.1132476E-09
 -9.8550005E-04    2.2936875E-09
 -9.8500005E-04    5.9423000E-09
 -9.8450005E-04    9.5754533E-09
 -9.8400004E-04    1.2906256E-08
 -9.8350004E-04    1.5637607E-08
 -9.8300003E-04    1.7484865E-08
 -9.8250003E-04    1.8200144E-08
 -9.8200003E-04    1.7596433E-08
 -9.8150002E-04    1.5569519E-08
 -9.8100002E-04    1.2115713E-08
 -9.8050002E-04    7.3434094E-09
 -9.8000001E-04    1.4769063E-09
 -9.7950001E-04   -5.1487183E-09
 -9.7900000E-04   -1.2102189E-08
 -9.7850000E-04   -1.8879932E-08
 -9.7800000E-04   -2.4938316E-08
 -9.7749999E-04   -2.9732513E-08
 -9.7699999E-04   -3.2759509E-08
 -9.7649998E-04   -3.3602220E-08
 -9.7599998E-04   -3.1971236E-08
 -9.7549998E-04   -2.7740631E-08
 -9.7499997E-04   -2.0974278E-08
 -9.7450003E-04   -1.1939688E-08
 -9.7400002E-04   -1.1069963E-09
 -9.7350002E-04    1.0868269E-08
 -9.7300002E-04    2.3178778E-08
 -9.7250001E-04    3.4914233E-08
 -9.7200001E-04    4.5122928E-08
 -9.7150001E-04    5.2882335E-08
 -9.7100000E-04    5.7373835E-08
 -9.7050000E-04    5.7956047E-08
 -9.6999999E-04    5.4230757E-08
 -9.6949999E-04    4.6095526E-08
 -9.6899999E-04    3.3777631E-08
 -9.6849998E-04    1.7845041E-08
 -9.6799998E-04   -8.0845386E-10
 -9.6749997E-04   -2.1004912E-08
 -9.6700003E-04   -4.1349644E-08
 -9.6650003E-04   -6.0321135E-08
 -9.6600002E-04   -7.6378164E-08
 -9.6550002E-04   -8.8077044E-08
 -9.6500001E-04   -9.4190469E-08
 -9.6450001E-04   -9.3818819E-08
 -9.6400001E-04   -8.6484356E-08
 -9.6350000E-04   -7.2199867E-08
 -9.6300000E-04   -5.1504220E-08
 -9.6249999E-04   -2.5459723E-08
 -9.6199999E-04    4.3912149E-09
 -9.6149999E-04    3.6109689E-08
 -9.6099998E-04    6.7480343E-08
 -9.6049998E-04    9.6160903E-08
 -9.5999998E-04    1.1985156E-07
 -9.5949997E-04    1.3647220E-07
 -9.5900003E-04    1.4433397E-07
 -9.5850002E-04    1.4229188E-07
 -9.5800002E-04    1.2986477E-07
 -9.5750001E-04    1.0731177E-07
 -9.5700001E-04    7.5656573E-08
 -9.5650001E-04    3.6654569E-08
 -9.5600000E-04   -7.2976221E-09
 -9.5550000E-04   -5.3306547E-08
 -9.5500000E-04   -9.8171711E-08
 -9.5449999E-04   -1.3860847E-07
 -9.5399999E-04   -1.7148835E-07
 -9.5349998E-04   -1.9407901E-07
 -9.5299998E-04   -2.0426522E-07
 -9.5249998E-04   -2.0073311E-07
 -9.5199997E-04   -1.8310139E-07
 -9.5150003E-04   -1.5198772E-07
 -9.5100002E-04   -1.0900229E-07
 -9.5050002E-04   -5.6666359E-08
 -9.5000002E-04    1.7404259E-09
 -9.4950001E-04    6.2394626E-08
 -9.4900001E-04    1.2119084E-07
 -9.4850000E-04    1.7403184E-07
 -9.4800000E-04    2.1712553E-07
 -9.4750000E-04    2.4726560E-07
 -9.4699999E-04    2.6207422E-07
 -9.4649999E-04    2.6018694E-07
 -9.4599999E-04    2.4136486E-07
 -9.4549998E-04    2.0652419E-07
 -9.4499998E-04    1.5768036E-07
 -9.4449997E-04    9.7810137E-08
 -9.4400003E-04    3.0642617E-08
 -9.4350002E-04   -3.9604672E-08
 -9.4300002E-04   -1.0852367E-07
 -9.4250002E-04   -1.7182370E-07
 -9.4200001E-04   -2.2562509E-07
 -9.4150001E-04   -2.6671515E-07
 -9.4100001E-04   -2.9274696E-07
 -9.4050000E-04   -3.0236671E-07
 -9.4000000E-04   -2.9526089E-07
 -9.3949999E-04   -2.7212369E-07
 -9.3899999E-04   -2.3455036E-07
 -9.3849999E-04   -1.8487029E-07
 -9.3799998E-04   -1.2593776E-07
 -9.3749998E-04   -6.0902636E-08
 -9.3699998E-04    7.0160158E-09
 -9.3649997E-04    7.4731773E-08
 -9.3600003E-04    1.3944980E-07
 -9.3550002E-04    1.9877034E-07
 -9.3500002E-04    2.5073109E-07
 -9.3450001E-04    2.9379072E-07
 -9.3400001E-04    3.2676300E-07
 -9.3350001E-04    3.4871854E-07
 -9.3300000E-04    3.5887481E-07
 -9.3250000E-04    3.5649845E-07
 -9.3200000E-04    3.4084303E-07
 -9.3149999E-04    3.1114175E-07
 -9.3099999E-04    2.6666822E-07
 -9.3049998E-04    2.0686953E-07
 -9.2999998E-04    1.3156570E-07
 -9.2949998E-04    4.1198408E-08
 -9.2899997E-04   -6.2898280E-08
 -9.2850003E-04   -1.7824030E-07
 -9.2800002E-04   -3.0098988E-07
 -9.2750002E-04   -4.2584665E-07
 -9.2700002E-04   -5.4607227E-07
 -9.2650001E-04   -6.5367635E-07
 -9.2600001E-04   -7.3978140E-07
 -9.2550000E-04   -7.9516423E-07
 -9.2500000E-04   -8.1095510E-07
 -9.2450000E-04   -7.7945407E-07
 -9.2399999E-04   -6.9500516E-07
 -9.2349999E-04   -5.5485418E-07
 -9.2299999E-04   -3.5990658E-07
 -9.2249998E-04   -1.1529556E-07
 -9.2199998E-04    1.6932091E-07
 -9.2149997E-04    4.7980467E-07
 -9.2100003E-04    7.9797150E-07
 -9.2050002E-04    1.1024324E-06
 -9.2000002E-04    1.3698274E-06
 -9.1950002E-04    1.5763982E-06
 -9.1900001E-04    1.6998085E-06
 -9.1850001E-04    1.7210906E-06
 -9.1800001E-04    1.6265654E-06
 -9.1750000E-04    1.4095741E-06
 -9.1700000E-04    1.0718500E-06
 -9.1649999E-04    6.2437465E-07
 -9.1599999E-04    8.7590294E-08
 -9.1549999E-04   -5.0912593E-07
 -9.1499998E-04   -1.1287588E-06
 -9.1449998E-04   -1.7287010E-06
 -9.1399997E-04   -2.2634613E-06
 -9.1349997E-04   -2.6878752E-06
 -9.1300003E-04   -2.9606194E-06
 -9.1250002E-04   -3.0477624E-06
 -9.1200002E-04   -2.9260784E-06
 -9.1150001E-04   -2.5858305E-06
 -9.1100001E-04   -2.0327534E-06
 -9.1050001E-04   -1.2890035E-06
 -9.1000000E-04   -3.9291049E-07
 -9.0950000E-04    6.0255513E-07
 -9.0899999E-04    1.6325838E-06
 -9.0849999E-04    2.6244832E-06
 -9.0799999E-04    3.5025714E-06
 -9.0749998E-04    4.1936914E-06
 -9.0699998E-04    4.6329665E-06
 -9.0649998E-04    4.7693602E-06
 -9.0599997E-04    4.5705879E-06
 -9.0550003E-04    4.0269506E-06
 -9.0500002E-04    3.1537113E-06
 -9.0450002E-04    1.9917245E-06
 -9.0400001E-04    6.0614684E-07
 -9.0350001E-04   -9.1679959E-07
 -9.0300001E-04   -2.4748924E-06
 -9.0250000E-04   -3.9565289E-06
 -9.0200000E-04   -5.2484893E-06
 -9.0150000E-04   -6.2443164E-06
 -9.0099999E-04   -6.8526974E-06
 -9.0049999E-04   -7.0052101E-06
 -8.9999998E-04   -6.6627954E-06
 -8.9949998E-04   -5.8203846E-06
 -8.9899998E-04   -4.5092283E-06
 -8.9849997E-04   -2.7966164E-06
 -8.9800003E-04   -7.8287121E-07
 -8.9750002E-04    1.4042937E-06
 -8.9700002E-04    3.6177587E-06
 -8.9650002E-04    5.7008342E-06
 -8.9600001E-04    7.4982881E-06
 -8.9550001E-04    8.8677871E-06
 -8.9500000E-04    9.6908961E-06
 -8.9450000E-04    9.8827959E-06
 -8.9400000E-04    9.3999188E-06
 -8.9349999E-04    8.2448478E-06
 -8.9299999E-04    6.4680057E-06
 -8.9249999E-04    4.1658732E-06
 -8.9199998E-04    1.4757615E-06
 -8.9149998E-04   -1.4326065E-06
 -8.9099997E-04   -4.3681612E-06
 -8.9050003E-04   -7.1314703E-06
 -8.9000002E-04   -9.5287096E-06
 -8.8950002E-04   -1.1385619E-05
 -8.8900002E-04   -1.2560389E-05
 -8.8850001E-04   -1.2954501E-05
 -8.8800001E-04   -1.2520656E-05
 -8.8750001E-04   -1.1267141E-05
 -8.8700000E-04   -9.2582559E-06
 -8.8650000E-04   -6.6106913E-06
 -8.8599999E-04   -3.4860620E-06
 -8.8549999E-04   -8.0121247E-08
 -8.8499999E-04    3.3905849E-06
 -8.8449998E-04    6.7036431E-06
 -8.8399998E-04    9.6461818E-06
 -8.8349998E-04    1.2029598E-05
 -8.8299997E-04    1.3702520E-05
 -8.8250003E-04    1.4561014E-05
 -8.8200002E-04    1.4555303E-05
 -8.8150002E-04    1.3692501E-05
 -8.8100001E-04    1.2035199E-05
 -8.8050001E-04    9.6960666E-06
 -8.8000001E-04    6.8289414E-06
 -8.7950000E-04    3.6171575E-06
 -8.7900000E-04    2.6005986E-07
 -8.7850000E-04   -3.0411836E-06
 -8.7799999E-04   -6.0973666E-06
 -8.7749999E-04   -8.7435410E-06
 -8.7699998E-04   -1.0848908E-05
 -8.7649998E-04   -1.2323614E-05
 -8.7599998E-04   -1.3122021E-05
 -8.7549997E-04   -1.3242380E-05
 -8.7500003E-04   -1.2723102E-05
 -8.7450002E-04   -1.1636165E-05
 -8.7400002E-04   -1.0078403E-05
 -8.7350002E-04   -8.1616208E-06
 -8.7300001E-04   -6.0025250E-06
 -8.7250001E-04   -3.7134669E-06
 -8.7200000E-04   -1.3948678E-06
 -8.7150000E-04    8.7000711E-07
 -8.7100000E-04    3.0175240E-06
 -8.7049999E-04    5.0033227E-06
 -8.6999999E-04    6.7993519E-06
 -8.6949999E-04    8.3888326E-06
 -8.6899998E-04    9.7599313E-06
 -8.6849998E-04    1.0899089E-05
 -8.6799997E-04    1.1785023E-05
 -8.6750003E-04    1.2384385E-05
 -8.6700002E-04    1.2649882E-05
 -8.6650002E-04    1.2521448E-05
 -8.6600002E-04    1.1930699E-05
 -8.6550001E-04    1.0808519E-05
 -8.6500001E-04    9.0952499E-06
 -8.6450001E-04    6.7525675E-06
 -8.6400000E-04    3.7758257E-06
 -8.6350000E-04    2.0546373E-07
 -8.6299999E-04   -3.8640314E-06
 -8.6249999E-04   -8.2790157E-06
 -8.6199999E-04   -1.2826637E-05
 -8.6149998E-04   -1.7240660E-05
 -8.6099998E-04   -2.1213535E-05
 -8.6049997E-04   -2.4414439E-05
 -8.5999997E-04   -2.6512542E-05
 -8.5950003E-04   -2.7203987E-05
 -8.5900002E-04   -2.6240734E-05
 -8.5850002E-04   -2.3458882E-05
 -8.5800001E-04   -1.8803972E-05
 -8.5750001E-04   -1.2350688E-05
 -8.5700001E-04   -4.3145983E-06
 -8.5650000E-04    4.9459682E-06
 -8.5600000E-04    1.4939196E-05
 -8.5549999E-04    2.5060701E-05
 -8.5499999E-04    3.4625646E-05
 -8.5449999E-04    4.2910662E-05
 -8.5399998E-04    4.9203238E-05
 -8.5349998E-04    5.2855474E-05
 -8.5299998E-04    5.3338375E-05
 -8.5249997E-04    5.0292583E-05
 -8.5200003E-04    4.3571286E-05
 -8.5150002E-04    3.3271353E-05
 -8.5100002E-04    1.9749297E-05
 -8.5050002E-04    3.6195590E-06
 -8.5000001E-04   -1.4266231E-05
 -8.4950001E-04   -3.2859014E-05
 -8.4900000E-04   -5.0969658E-05
 -8.4850000E-04   -6.7341061E-05
 -8.4800000E-04   -8.0730817E-05
 -8.4749999E-04   -8.9999237E-05
 -8.4699999E-04   -9.4196686E-05
 -8.4649998E-04   -9.2643888E-05
 -8.4599998E-04   -8.4998981E-05
 -8.4549998E-04   -7.1305469E-05
 -8.4499997E-04   -5.2016574E-05
 -8.4450003E-04   -2.7992552E-05
 -8.4400002E-04   -4.6950586E-07
 -8.4350002E-04    2.8999886E-05
 -8.4300002E-04    5.8631300E-05
 -8.4250001E-04    8.6514927E-05
 -8.4200001E-04    1.1073670E-04
 -8.4150000E-04    1.2950697E-04
 -8.4100000E-04    1.4128818E-04
 -8.4050000E-04    1.4491263E-04
 -8.3999999E-04    1.3968152E-04
 -8.3949999E-04    1.2543765E-04
 -8.3899999E-04    1.0260534E-04
 -8.3849998E-04    7.2193019E-05
 -8.3799998E-04    3.5756599E-05
 -8.3749997E-04   -4.6758419E-06
 -8.3700003E-04   -4.6714915E-05
 -8.3650002E-04   -8.7750377E-05
 -8.3600002E-04   -1.2511302E-04
 -8.3550002E-04   -1.5624819E-04
 -8.3500001E-04   -1.7888959E-04
 -8.3450001E-04   -1.9122167E-04
 -8.3400001E-04   -1.9201923E-04
 -8.3350000E-04   -1.8075397E-04
 -8.3300000E-04   -1.5765917E-04
 -8.3249999E-04   -1.2374674E-04
 -8.3199999E-04   -8.0773229E-05
 -8.3149999E-04   -3.1155309E-05
 -8.3099998E-04    2.2161925E-05
 -8.3049998E-04    7.5876742E-05
 -8.2999998E-04    1.2653293E-04
 -8.2949997E-04    1.7074001E-04
 -8.2900003E-04    2.0539749E-04
 -8.2850002E-04    2.2790875E-04
 -8.2800002E-04    2.3636976E-04
 -8.2750001E-04    2.2971940E-04
 -8.2700001E-04    2.0784016E-04
 -8.2650001E-04    1.7160061E-04
 -8.2600000E-04    1.2283499E-04
 -8.2550000E-04    6.4259169E-05
 -8.2500000E-04   -6.7407797E-07
 -8.2449999E-04   -6.7972629E-05
 -8.2399999E-04   -1.3334463E-04
 -8.2349998E-04   -1.9246564E-04
 -8.2299998E-04   -2.4125708E-04
 -8.2249998E-04   -2.7615798E-04
 -8.2199997E-04   -2.9437258E-04
 -8.2150003E-04   -2.9407625E-04
 -8.2100002E-04   -2.7456624E-04
 -8.2050002E-04   -2.3634457E-04
 -8.2000002E-04   -1.8112692E-04
 -8.1950001E-04   -1.1177365E-04
 -8.1900001E-04   -3.2146028E-05
 -8.1850000E-04    5.3105920E-05
 -8.1800000E-04    1.3881187E-04
 -8.1750000E-04    2.1959067E-04
 -8.1699999E-04    2.9018204E-04
 -8.1649999E-04    3.4578022E-04
 -8.1599999E-04    3.8234831E-04
 -8.1549998E-04    3.9689304E-04
 -8.1499998E-04    3.8768179E-04
 -8.1449997E-04    3.5438655E-04
 -8.1400003E-04    2.9814447E-04
 -8.1350002E-04    2.2152923E-04
 -8.1300002E-04    1.2843277E-04
 -8.1250002E-04    2.3863355E-05
 -8.1200001E-04   -8.6329579E-05
 -8.1150001E-04   -1.9578797E-04
 -8.1100001E-04   -2.9801592E-04
 -8.1050000E-04   -3.8676639E-04
 -8.1000000E-04   -4.5642050E-04
 -8.0949999E-04   -5.0233660E-04
 -8.0899999E-04   -5.2114658E-04
 -8.0849999E-04   -5.1098195E-04
 -8.0799998E-04   -4.7161363E-04
 -8.0749998E-04   -4.0449807E-04
 -8.0699997E-04   -3.1272348E-04
 -8.0649997E-04   -2.0086045E-04
 -8.0600003E-04   -7.4723408E-05
 -8.0550002E-04    5.8942882E-05
 -8.0500002E-04    1.9283454E-04
 -8.0450001E-04    3.1949597E-04
 -8.0400001E-04    4.3174013E-04
 -8.0350001E-04    5.2305771E-04
 -8.0300000E-04    5.8799150E-04
 -8.0250000E-04    6.2245462E-04
 -8.0200000E-04    6.2397472E-04
 -8.0149999E-04    5.9185008E-04
 -8.0099999E-04    5.2720914E-04
 -8.0049998E-04    4.3297000E-04
 -7.9999998E-04    3.1370189E-04
 -7.9949998E-04    1.7539696E-04
 -7.9899997E-04    2.5164016E-05
 -7.9850003E-04   -1.2913893E-04
 -7.9800002E-04   -2.7931386E-04
 -7.9750002E-04   -4.1725245E-04
 -7.9700002E-04   -5.3536386E-04
 -7.9650001E-04   -6.2697852E-04
 -7.9600001E-04   -6.8670820E-04
 -7.9550000E-04   -7.1074360E-04
 -7.9500000E-04   -6.9707527E-04
 -7.9450000E-04   -6.4562622E-04
 -7.9399999E-04   -5.5829028E-04
 -7.9349999E-04   -4.3887302E-04
 -7.9299998E-04   -2.9293785E-04
 -7.9249998E-04   -1.2756328E-04
 -7.9199998E-04    4.8978840E-05
 -7.9149997E-04    2.2760977E-04
 -7.9100003E-04    3.9887911E-04
 -7.9050002E-04    5.5342994E-04
 -7.9000002E-04    6.8247301E-04
 -7.8950002E-04    7.7824912E-04
 -7.8900001E-04    8.3445793E-04
 -7.8850001E-04    8.4663188E-04
 -7.8800000E-04    8.1243651E-04
 -7.8750000E-04    7.3187897E-04
 -7.8700000E-04    6.0741062E-04
 -7.8649999E-04    4.4391380E-04
 -7.8599999E-04    2.4856575E-04
 -7.8549999E-04    3.0579842E-05
 -7.8499998E-04   -1.9917112E-04
 -7.8449998E-04   -4.2863883E-04
 -7.8399997E-04   -6.4517302E-04
 -7.8350003E-04   -8.3616178E-04
 -7.8300002E-04   -9.8970975E-04
 -7.8250002E-04   -1.0953227E-03
 -7.8200002E-04   -1.1445595E-03
 -7.8150001E-04   -1.1316180E-03
 -7.8100001E-04   -1.0538149E-03
 -7.8050001E-04   -9.1192551E-04
 -7.8000000E-04   -7.1035547E-04
 -7.7950000E-04   -4.5711992E-04
 -7.7899999E-04   -1.6361837E-04
 -7.7849999E-04    1.5579829E-04
 -7.7799999E-04    4.8445855E-04
 -7.7749998E-04    8.0417772E-04
 -7.7699998E-04    1.0962066E-03
 -7.7649998E-04    1.3422769E-03
 -7.7599997E-04    1.5256886E-03
 -7.7550003E-04    1.6323753E-03
 -7.7500002E-04    1.6518860E-03
 -7.7450002E-04    1.5782145E-03
 -7.7400001E-04    1.4104188E-03
 -7.7350001E-04    1.1529779E-03
 -7.7300001E-04    8.1584544E-04
 -7.7250000E-04    4.1417993E-04
 -7.7200000E-04   -3.2254979E-05
 -7.7150000E-04   -5.0000282E-04
 -7.7099999E-04   -9.6310308E-04
 -7.7049999E-04   -1.3945000E-03
 -7.6999998E-04   -1.7675969E-03
 -7.6949998E-04   -2.0578688E-03
 -7.6899998E-04   -2.2444366E-03
 -7.6849997E-04   -2.3115047E-03
 -7.6800003E-04   -2.2495613E-03
 -7.6750002E-04   -2.0562587E-03
 -7.6700002E-04   -1.7368995E-03
 -7.6650002E-04   -1.3044785E-03
 -7.6600001E-04   -7.7925652E-04
 -7.6550001E-04   -1.8786856E-04
 -7.6500000E-04    4.3799952E-04
 -7.6450000E-04    1.0633031E-03
 -7.6400000E-04    1.6516113E-03
 -7.6349999E-04    2.1672491E-03
 -7.6299999E-04    2.5774813E-03
 -7.6249999E-04    2.8546052E-03
 -7.6199998E-04    2.9778157E-03
 -7.6149998E-04    2.9347199E-03
 -7.6099997E-04    2.7223881E-03
 -7.6050003E-04    2.3478614E-03
 -7.6000002E-04    1.8280640E-03
 -7.5950002E-04    1.1891024E-03
 -7.5900002E-04    4.6497531E-04
 -7.5850001E-04   -3.0424620E-04
 -7.5800001E-04   -1.0746699E-03
 -7.5750001E-04   -1.8011394E-03
 -7.5700000E-04   -2.4399457E-03
 -7.5650000E-04   -2.9515282E-03
 -7.5599999E-04   -3.3029946E-03
 -7.5549999E-04   -3.4702979E-03
 -7.5499999E-04   -3.4399244E-03
 -7.5449998E-04   -3.2099704E-03
 -7.5399998E-04   -2.7905290E-03
 -7.5349997E-04   -2.2033413E-03
 -7.5299997E-04   -1.4807165E-03
 -7.5250003E-04   -6.6377135E-04
 -7.5200002E-04    1.9991711E-04
 -7.5150002E-04    1.0591105E-03
 -7.5100001E-04    1.8619960E-03
 -7.5050001E-04    2.5593718E-03
 -7.5000001E-04    3.1077345E-03
 -7.4950000E-04    3.4720716E-03
 -7.4900000E-04    3.6281778E-03
 -7.4850000E-04    3.5643410E-03
 -7.4799999E-04    3.2822804E-03
 -7.4749999E-04    2.7972609E-03
 -7.4699998E-04    2.1373644E-03
 -7.4649998E-04    1.3419486E-03
 -7.4599998E-04    4.5937422E-04