 -1.2000001E-03    1.0000000E-24
 -1.1995001E-03    1.0000000E-24
 -1.1990000E-03    1.0000000E-24
 -1.1985000E-03    1.0000000E-24
 -1.1980000E-03    1.0000000E-24
 -1.1975000E-03    1.0000000E-24
 -1.1970000E-03    1.0000000E-24
 -1.1965000E-03    1.0000000E-24
 -1.1960000E-03    9.9963852E-25
 -1.1955000E-03    9.9542019E-25
 -1.1950000E-03    9.6036617E-25
 -1.1945000E-03    9.8702138E-25
 -1.1940000E-03    7.6698767E-25
 -1.1935000E-03   -4.3980218E-25
 -1.1930000E-03    1.4143049E-23
 -1.1925000E-03    5.0416444E-24
 -1.1920000E-03   -3.5639016E-23
 -1.1915000E-03   -7.6320639E-23
 -1.1910000E-03   -2.4332259E-22
 -1.1905000E-03   -4.1032733E-22
 -1.1900000E-03   -1.0826050E-21
 -1.1895000E-03   -3.5233370E-21
 -1.1890000E-03   -7.9851711E-21
 -1.1885000E-03   -1.2447006E-20
 -1.1880000E-03   -1.4887616E-20
 -1.1875000E-03   -1.7328305E-20
 -1.1870000E-03   -2.7853223E-20
 -1.1865000E-03   -4.2420717E-20
 -1.1860000E-03   -5.5978168E-20
 -1.1854999E-03   -6.1451726E-20
 -1.1849999E-03   -6.6924766E-20
 -1.1845001E-03   -2.3890215E-20
 -1.1840001E-03    8.3820260E-20
 -1.1835000E-03    1.9153034E-19
 -1.1830000E-03    4.2858983E-19
 -1.1825000E-03    6.6564733E-19
 -1.1820000E-03    1.1614001E-18
 -1.1815000E-03    1.5277998E-18
 -1.1810000E-03    2.4116014E-18
 -1.1805000E-03    2.0018989E-18
 -1.1800000E-03    2.8857037E-18
 -1.1795000E-03    4.7072843E-18
 -1.1790000E-03    8.5984639E-18
 -1.1785000E-03    1.2489650E-17
 -1.1780000E-03    1.5346037E-17
 -1.1775000E-03    2.0272000E-17
 -1.1770000E-03    2.3128347E-17
 -1.1765000E-03    2.1845493E-17
 -1.1760000E-03    2.4701795E-17
 -1.1755000E-03    3.9975690E-17
 -1.1750000E-03    5.5249891E-17
 -1.1745000E-03    5.3967354E-17
 -1.1740000E-03    5.2684788E-17
 -1.1735000E-03    5.9680724E-17
 -1.1730000E-03    5.5293709E-17
 -1.1725000E-03    7.1602732E-17
 -1.1720000E-03    2.9962811E-17
 -1.1715000E-03   -4.4791185E-17
 -1.1710000E-03   -1.5265913E-16
 -1.1704999E-03   -3.2675447E-16
 -1.1699999E-03   -5.0084936E-16
 -1.1695001E-03   -5.4248950E-16
 -1.1690001E-03   -4.5167503E-16
 -1.1685000E-03   -4.2708833E-16
 -1.1680000E-03   -6.6741225E-16
 -1.1675000E-03   -7.7528216E-16
 -1.1670000E-03   -5.5201624E-16
 -1.1665000E-03   -2.9563509E-16
 -1.1660000E-03   -4.0764151E-16
 -1.1655000E-03   -3.2096598E-16
 -1.1650000E-03    3.0622441E-17
 -1.1645000E-03    3.8221171E-16
 -1.1640000E-03    1.5285331E-15
 -1.1635000E-03    2.1450381E-15
 -1.1630000E-03    2.7615419E-15
 -1.1625000E-03    2.8482277E-15
 -1.1620000E-03    2.4050925E-15
 -1.1615000E-03    3.0215842E-15
 -1.1610000E-03    4.6977150E-15
 -1.1605000E-03    4.2545660E-15
 -1.1600000E-03    1.4272208E-15
 -1.1595000E-03   -2.3273079E-15
 -1.1590000E-03   -7.2739361E-15
 -1.1585000E-03   -1.1690749E-14
 -1.1580000E-03   -1.5047906E-14
 -1.1575000E-03   -1.7345417E-14
 -1.1570000E-03   -1.9642916E-14
 -1.1565000E-03   -2.4059707E-14
 -1.1560000E-03   -2.4237943E-14
 -1.1555000E-03   -2.4416180E-14
 -1.1549999E-03   -2.0355877E-14
 -1.1544999E-03   -1.2057018E-14
 -1.1540001E-03    6.8382325E-15
 -1.1535001E-03    3.4210610E-14
 -1.1530000E-03    7.3239049E-14
 -1.1525000E-03    1.0749912E-13
 -1.1520000E-03    1.5235557E-13
 -1.1515000E-03    1.9509275E-13
 -1.1510000E-03    2.5054562E-13
 -1.1505000E-03    2.7632863E-13
 -1.1500000E-03    3.0635016E-13
 -1.1495000E-03    3.3637175E-13
 -1.1490000E-03    3.6639336E-13
 -1.1485000E-03    3.9641502E-13
 -1.1480000E-03    4.0100537E-13
 -1.1475000E-03    3.7168725E-13
 -1.1470000E-03    2.7455214E-13
 -1.1465000E-03    1.4774709E-13
 -1.1460000E-03   -4.4893161E-15
 -1.1455000E-03   -1.6308351E-13
 -1.1450000E-03   -3.3651258E-13
 -1.1445000E-03   -5.0570323E-13
 -1.1440000E-03   -7.0880216E-13
 -1.1435000E-03   -9.1190120E-13
 -1.1430000E-03   -1.0810919E-12
 -1.1425000E-03   -1.1824656E-12
 -1.1420000E-03   -1.1651598E-12
 -1.1415000E-03   -1.1139456E-12
 -1.1410000E-03   -1.0288233E-12
 -1.1405000E-03   -8.5893022E-13
 -1.1399999E-03   -7.2294568E-13
 -1.1394999E-03   -5.8696125E-13
 -1.1390001E-03   -5.8661095E-13
 -1.1385001E-03   -6.2864655E-13
 -1.1380001E-03   -7.9995808E-13
 -1.1375000E-03   -1.2255832E-12
 -1.1370000E-03   -1.6003452E-12
 -1.1365000E-03   -1.8903358E-12
 -1.1360000E-03   -1.9090580E-12
 -1.1355000E-03   -2.0634137E-12
 -1.1350000E-03   -1.9465013E-12
 -1.1345000E-03   -1.7278633E-12
 -1.1340000E-03   -1.3396825E-12
 -1.1335000E-03   -6.8023376E-13
 -1.1330000E-03    5.8956849E-13
 -1.1325000E-03    1.8254630E-12
 -1.1320000E-03    3.4343515E-12
 -1.1315000E-03    5.3484157E-12
 -1.1310000E-03    6.9742575E-12
 -1.1305000E-03    8.1253788E-12
 -1.1300000E-03    8.2253379E-12
 -1.1295000E-03    8.1896608E-12
 -1.1290000E-03    7.4079970E-12
 -1.1285000E-03    6.2872489E-12
 -1.1280000E-03    4.8274175E-12
 -1.1275000E-03    2.3503330E-12
 -1.1270000E-03   -5.3365309E-13
 -1.1265000E-03   -4.0279902E-12
 -1.1260000E-03   -7.5223265E-12
 -1.1255000E-03   -1.0592808E-11
 -1.1250000E-03   -1.2985120E-11
 -1.1244999E-03   -1.4902714E-11
 -1.1239999E-03   -1.6820313E-11
 -1.1235001E-03   -1.7652843E-11
 -1.1230001E-03   -1.7400303E-11
 -1.1225000E-03   -1.6333965E-11
 -1.1220000E-03   -1.3368757E-11
 -1.1215000E-03   -1.0403546E-11
 -1.1210000E-03   -7.9808720E-12
 -1.1205000E-03   -5.8294645E-12
 -1.1200000E-03   -2.9998833E-12
 -1.1195000E-03   -5.0938534E-13
 -1.1190000E-03    2.0150238E-12
 -1.1185000E-03    3.5900005E-12
 -1.1180000E-03    3.8086478E-12
 -1.1175000E-03    4.0273006E-12
 -1.1170000E-03    2.6183500E-12
 -1.1165000E-03   -9.6073789E-13
 -1.1160000E-03   -3.9972916E-12
 -1.1155000E-03   -8.6614561E-12
 -1.1150000E-03   -1.4410697E-11
 -1.1145000E-03   -1.9074874E-11
 -1.1140000E-03   -2.3196519E-11
 -1.1135000E-03   -2.7182537E-11
 -1.1130000E-03   -2.8930601E-11
 -1.1125000E-03   -2.7965989E-11
 -1.1120000E-03   -2.6458846E-11
 -1.1115000E-03   -2.4409167E-11
 -1.1110000E-03   -2.3444559E-11
 -1.1105000E-03   -1.9224740E-11
 -1.1100000E-03   -1.5004921E-11
 -1.1094999E-03   -8.6149594E-12
 -1.1089999E-03   -2.2249980E-12
 -1.1084999E-03    3.6224227E-12
 -1.1080001E-03    8.3847729E-12
 -1.1075001E-03    1.4232194E-11
 -1.1070000E-03    2.1435954E-11
 -1.1065000E-03    3.0809865E-11
 -1.1060000E-03    4.3438999E-11
 -1.1055000E-03    5.4983074E-11
 -1.1050000E-03    6.8697305E-11
 -1.1045000E-03    8.2411550E-11
 -1.1040000E-03    9.3955663E-11
 -1.1035000E-03    1.0115949E-10
 -1.1030000E-03    1.0402305E-10
 -1.1025000E-03    1.0146125E-10
 -1.1020000E-03    9.7271843E-11
 -1.1015000E-03    8.6843276E-11
 -1.1010000E-03    7.1531892E-11
 -1.1005000E-03    4.7539923E-11
 -1.1000000E-03    2.3547948E-11
 -1.0995000E-03   -4.7843374E-12
 -1.0990000E-03   -3.0946516E-11
 -1.0985000E-03   -5.7108731E-11
 -1.0980000E-03   -8.9781384E-11
 -1.0975000E-03   -1.2679434E-10
 -1.0970000E-03   -1.5946702E-10
 -1.0965000E-03   -1.8345915E-10
 -1.0960000E-03   -1.9931325E-10
 -1.0955000E-03   -2.1245468E-10
 -1.0950000E-03   -2.1908567E-10
 -1.0945000E-03   -2.2137638E-10
 -1.0939999E-03   -2.0630590E-10
 -1.0934999E-03   -1.7387430E-10
 -1.0930001E-03   -1.2408151E-10
 -1.0925001E-03   -6.1267845E-11
 -1.0920000E-03    1.4566707E-11
 -1.0915000E-03    9.6911736E-11
 -1.0910000E-03    1.8359710E-10
 -1.0905000E-03    2.6811237E-10
 -1.0900000E-03    3.4557468E-10
 -1.0895000E-03    4.1218631E-10
 -1.0890000E-03    4.5926665E-10
 -1.0885000E-03    4.7596505E-10
 -1.0880000E-03    4.6662169E-10
 -1.0875000E-03    4.2255599E-10
 -1.0870000E-03    3.6112918E-10
 -1.0865000E-03    2.8668146E-10
 -1.0860000E-03    1.9704269E-10
 -1.0855000E-03    1.1391430E-10
 -1.0850000E-03    1.7765005E-11
 -1.0845000E-03   -7.6214188E-11
 -1.0840000E-03   -1.7670383E-10
 -1.0835000E-03   -2.4898170E-10
 -1.0830000E-03   -3.2125957E-10
 -1.0825000E-03   -3.8919720E-10
 -1.0820000E-03   -4.4845427E-10
 -1.0815000E-03   -5.1639193E-10
 -1.0810000E-03   -5.7130878E-10
 -1.0805000E-03   -6.0235406E-10
 -1.0800000E-03   -5.9216654E-10
 -1.0795000E-03   -5.4725674E-10
 -1.0790000E-03   -4.8932602E-10
 -1.0784999E-03   -3.7931183E-10
 -1.0779999E-03   -2.1721408E-10
 -1.0775001E-03   -1.1713316E-11
 -1.0770001E-03    2.1114870E-10
 -1.0765000E-03    4.3401091E-10
 -1.0760000E-03    6.6989408E-10
 -1.0755000E-03    8.7105512E-10
 -1.0750000E-03    1.0136223E-09
 -1.0745000E-03    1.1496791E-09
 -1.0740000E-03    1.2293121E-09
 -1.0735000E-03    1.2177989E-09
 -1.0730000E-03    1.0587157E-09
 -1.0725000E-03    7.6942369E-10
 -1.0720000E-03    3.7596454E-10
 -1.0715000E-03   -6.9578350E-11
 -1.0710000E-03   -5.7588551E-10
 -1.0705000E-03   -1.0995540E-09
 -1.0700000E-03   -1.5711392E-09
 -1.0695000E-03   -1.9211965E-09
 -1.0690000E-03   -2.2018092E-09
 -1.0685000E-03   -2.3370221E-09
 -1.0680000E-03   -2.3159850E-09
 -1.0675000E-03   -2.2081417E-09
 -1.0670000E-03   -1.9787698E-09
 -1.0665000E-03   -1.6278697E-09
 -1.0660000E-03   -1.1728021E-09
 -1.0655000E-03   -6.8301181E-10
 -1.0650000E-03   -1.2377654E-10
 -1.0645000E-03    4.6150075E-10
 -1.0640000E-03    9.9469499E-10
 -1.0634999E-03    1.4497643E-09
 -1.0629999E-03    1.7746250E-09
 -1.0625001E-03    1.9388950E-09
 -1.0620001E-03    1.8948310E-09
 -1.0615001E-03    1.6077103E-09
 -1.0610000E-03    1.1643390E-09
 -1.0605000E-03    5.9943889E-10
 -1.0600000E-03   -1.7545259E-11
 -1.0595000E-03   -6.1716893E-10
 -1.0590000E-03   -1.1299874E-09
 -1.0585000E-03   -1.5212785E-09
 -1.0580000E-03   -1.8431254E-09
 -1.0575000E-03   -2.0521251E-09
 -1.0570000E-03   -2.1048745E-09
 -1.0565000E-03   -2.0447759E-09
 -1.0560000E-03   -1.9325939E-09
 -1.0555000E-03   -1.7683275E-09
 -1.0550000E-03   -1.5866991E-09
 -1.0545000E-03   -1.4571533E-09
 -1.0540000E-03   -1.3796901E-09
 -1.0535000E-03   -1.3195872E-09
 -1.0530000E-03   -1.3462894E-09
 -1.0525000E-03   -1.3903524E-09
 -1.0520000E-03   -1.4430956E-09
 -1.0515000E-03   -1.5132003E-09
 -1.0510000E-03   -1.5919860E-09
 -1.0505000E-03   -1.6490709E-09
 -1.0500000E-03   -1.6801149E-09
 -1.0495000E-03   -1.6764375E-09
 -1.0490000E-03   -1.6554000E-09
 -1.0485000E-03   -1.5301967E-09
 -1.0479999E-03   -1.3181884E-09
 -1.0474999E-03   -9.8465291E-10
 -1.0470001E-03   -6.1639555E-10
 -1.0465001E-03   -7.4527058E-11
 -1.0460000E-03    5.8886945E-10
 -1.0455000E-03    1.2869888E-09
 -1.0450000E-03    2.0046402E-09
 -1.0445000E-03    2.6268063E-09
 -1.0440000E-03    3.1100842E-09
 -1.0435000E-03    3.4023910E-09
 -1.0430000E-03    3.6078931E-09
 -1.0425000E-03    3.6050627E-09
 -1.0420000E-03    3.3938996E-09
 -1.0415000E-03    2.9223204E-09
 -1.0410000E-03    2.2250470E-09
 -1.0405000E-03    1.2847179E-09
 -1.0400000E-03    2.5758295E-10
 -1.0395000E-03   -9.0844182E-10
 -1.0390000E-03   -2.0636168E-09
 -1.0385000E-03   -3.1059455E-09
 -1.0380000E-03   -4.0093862E-09
 -1.0375000E-03   -4.7044950E-09
 -1.0370000E-03   -5.2259934E-09
 -1.0365000E-03   -5.6433263E-09
 -1.0360000E-03   -5.8870482E-09
 -1.0355000E-03   -5.9918821E-09
 -1.0350000E-03   -6.1314389E-09
 -1.0345000E-03   -6.3751626E-09
 -1.0340000E-03   -6.8272201E-09
 -1.0335000E-03   -7.2619168E-09
 -1.0329999E-03   -7.6271682E-09
 -1.0324999E-03   -7.8991027E-09
 -1.0319999E-03   -8.0147871E-09
 -1.0315001E-03   -7.8874143E-09
 -1.0310001E-03   -7.4649007E-09
 -1.0305000E-03   -6.6951644E-09
 -1.0300000E-03   -5.6476486E-09
 -1.0295000E-03   -4.2529091E-09
 -1.0290000E-03   -2.8234470E-09
 -1.0285000E-03   -1.2550949E-09
 -1.0280000E-03    5.9103566E-10
 -1.0275000E-03    2.5934168E-09
 -1.0270000E-03    4.5784367E-09
 -1.0265000E-03    6.3898460E-09
 -1.0260000E-03    8.0157081E-09
 -1.0255000E-03    9.4071950E-09
 -1.0250000E-03    1.0529584E-08
 -1.0245000E-03    1.1304750E-08
 -1.0240000E-03    1.1541720E-08
 -1.0235000E-03    1.1153690E-08
 -1.0230000E-03    1.0105937E-08
 -1.0225000E-03    8.5026262E-09
 -1.0220000E-03    6.3090360E-09
 -1.0215000E-03    3.4036383E-09
 -1.0210000E-03    9.0252736E-11
 -1.0205000E-03   -3.6094192E-09
 -1.0200000E-03   -7.0269746E-09
 -1.0195000E-03   -1.0557378E-08
 -1.0190000E-03   -1.3718859E-08
 -1.0185000E-03   -1.6216278E-08
 -1.0180000E-03   -1.7923766E-08
 -1.0174999E-03   -1.8745835E-08
 -1.0169999E-03   -1.8517555E-08
 -1.0165001E-03   -1.7212885E-08
 -1.0160001E-03   -1.4779739E-08
 -1.0155000E-03   -1.1200758E-08
 -1.0150000E-03   -6.3717720E-09
 -1.0145000E-03   -8.3097679E-10
 -1.0140000E-03    4.8487103E-09
 -1.0135000E-03    1.0450274E-08
 -1.0130000E-03    1.5704618E-08
 -1.0125000E-03    2.0142991E-08
 -1.0120000E-03    2.3470253E-08
 -1.0115000E-03    2.5443345E-08
 -1.0110000E-03    2.5888657E-08
 -1.0105000E-03    2.4528408E-08
 -1.0100000E-03    2.1293154E-08
 -1.0095000E-03    1.6530118E-08
 -1.0090000E-03    1.0586518E-08
 -1.0085000E-03    3.7401366E-09
 -1.0080000E-03   -3.4187493E-09
 -1.0075000E-03   -1.0438749E-08
 -1.0070000E-03   -1.6764307E-08
 -1.0065000E-03   -2.2074239E-08
 -1.0060000E-03   -2.6116810E-08
 -1.0055000E-03   -2.8353824E-08
 -1.0050000E-03   -2.8576943E-08
 -1.0045000E-03   -2.6577835E-08
 -1.0040000E-03   -2.2634275E-08
 -1.0035000E-03   -1.6954600E-08
 -1.0030000E-03   -1.0094360E-08
 -1.0025000E-03   -2.3313367E-09
 -1.0019999E-03    5.8483596E-09
 -1.0014999E-03    1.3472504E-08
 -1.0010001E-03    1.9811930E-08
 -1.0005001E-03    2.4779828E-08
 -1.0000000E-03    2.7777238E-08
 -9.9950004E-04    2.8482981E-08
 -9.9900004E-04    2.7035940E-08
 -9.9850004E-04    2.3297227E-08
 -9.9800003E-04    1.7405730E-08
 -9.9750003E-04    9.9170023E-09
 -9.9700002E-04    1.4560454E-09
 -9.9650002E-04   -7.2826980E-09
 -9.9600002E-04   -1.5813114E-08
 -9.9550001E-04   -2.2885205E-08
 -9.9500001E-04   -2.8429520E-08
 -9.9450001E-04   -3.1821060E-08
 -9.9400000E-04   -3.3363641E-08
 -9.9350000E-04   -3.2753441E-08
 -9.9299999E-04   -3.0302960E-08
 -9.9249999E-04   -2.6185811E-08
 -9.9199999E-04   -2.1026986E-08
 -9.9149998E-04   -1.5382044E-08
 -9.9099998E-04   -9.8065396E-09
 -9.9049998E-04   -4.2310266E-09
 -9.8999997E-04    8.5838298E-10
 -9.8949997E-04    5.2533538E-09
 -9.8899996E-04    7.9990237E-09
 -9.8849996E-04    9.3731698E-09
 -9.8799996E-04    9.3931520E-09
 -9.8749995E-04    8.3714680E-09
 -9.8699995E-04    6.5511720E-09
 -9.8649994E-04    4.1058734E-09
 -9.8600006E-04    1.3133477E-09
 -9.8550005E-04   -1.7569628E-09
 -9.8500005E-04   -4.8272812E-09
 -9.8450005E-04   -7.8108044E-09
 -9.8400004E-04   -1.0586003E-08
 -9.8350004E-04   -1.3066074E-08
 -9.8300003E-04   -1.5511430E-08
 -9.8250003E-04   -1.7956797E-08
 -9.8200003E-04   -2.0193836E-08
 -9.8150002E-04   -2.2153101E-08
 -9.8100002E-04   -2.3487370E-08
 -9.8050002E-04   -2.3641078E-08
 -9.8000001E-04   -2.2336449E-08
 -9.7950001E-04   -1.8879032E-08
 -9.7900000E-04   -1.3407714E-08
 -9.7850000E-04   -5.8877689E-09
 -9.7800000E-04    3.6808054E-09
 -9.7749999E-04    1.5263284E-08
 -9.7699999E-04    2.8130501E-08
 -9.7649998E-04    4.2386624E-08
 -9.7599998E-04    5.6920531E-08
 -9.7549998E-04    7.0760002E-08
 -9.7499997E-04    8.3974477E-08
 -9.7450003E-04    9.4550060E-08
 -9.7400002E-04    1.0123674E-07
 -9.7350002E-04    1.0361786E-07
 -9.7300002E-04    1.0023507E-07
 -9.7250001E-04    9.1053643E-08
 -9.7200001E-04    7.6629142E-08
 -9.7150001E-04    5.7755830E-08
 -9.7100000E-04    3.5323470E-08
 -9.7050000E-04    1.0460544E-08
 -9.6999999E-04   -1.5235727E-08
 -9.6949999E-04   -4.1140339E-08
 -9.6899999E-04   -6.5794950E-08
 -9.6849998E-04   -8.7255117E-08
 -9.6799998E-04   -1.0482638E-07
 -9.6749997E-04   -1.1684207E-07
 -9.6700003E-04   -1.2295497E-07
 -9.6650003E-04   -1.2288729E-07
 -9.6600002E-04   -1.1677793E-07
 -9.6550002E-04   -1.0393243E-07
 -9.6500001E-04   -8.5227533E-08
 -9.6450001E-04   -6.2234427E-08
 -9.6400001E-04   -3.6185750E-08
 -9.6350000E-04   -8.3315035E-09
 -9.6300000E-04    1.9731079E-08
 -9.6249999E-04    4.5849212E-08
 -9.6199999E-04    6.8217339E-08
 -9.6149999E-04    8.4752116E-08
 -9.6099998E-04    9.5314654E-08
 -9.6049998E-04    9.9488275E-08
 -9.5999998E-04    9.7203539E-08
 -9.5949997E-04    8.8391005E-08
 -9.5900003E-04    7.4717327E-08
 -9.5850002E-04    5.6720712E-08
 -9.5800002E-04    3.5529638E-08
 -9.5750001E-04    1.3713554E-08
 -9.5700001E-04   -7.6164213E-09
 -9.5650001E-04   -2.7140835E-08
 -9.5600000E-04   -4.3331905E-08
 -9.5550000E-04   -5.4661843E-08
 -9.5500000E-04   -5.9880648E-08
 -9.5449999E-04   -5.8293871E-08
 -9.5399999E-04   -5.0595961E-08
 -9.5349998E-04   -3.7411912E-08
 -9.5299998E-04   -2.0061176E-08
 -9.5249998E-04    4.4929677E-10
 -9.5199997E-04    2.2348665E-08
 -9.5150003E-04    4.3692481E-08
 -9.5100002E-04    6.2675177E-08
 -9.5050002E-04    7.7421760E-08
 -9.5000002E-04    8.6821096E-08
 -9.4950001E-04    9.0387068E-08
 -9.4900001E-04    8.8258581E-08
 -9.4850000E-04    8.0574509E-08
 -9.4800000E-04    6.8654309E-08
 -9.4750000E-04    5.3678534E-08
 -9.4699999E-04    3.8277399E-08
 -9.4649999E-04    2.4152303E-08
 -9.4599999E-04    1.2527210E-08
 -9.4549998E-04    4.0271275E-09
 -9.4499998E-04   -1.6738570E-10
 -9.4449997E-04    4.9923005E-10
 -9.4400003E-04    7.1380906E-09
 -9.4350002E-04    1.9349891E-08
 -9.4300002E-04    3.6318660E-08
 -9.4250002E-04    5.6846474E-08
 -9.4200001E-04    7.9006249E-08
 -9.4150001E-04    1.0054104E-07
 -9.4100001E-04    1.1978415E-07
 -9.4050000E-04    1.3388838E-07
 -9.4000000E-04    1.4236760E-07
 -9.3949999E-04    1.4334680E-07
 -9.3899999E-04    1.3633986E-07
 -9.3849999E-04    1.2093014E-07
 -9.3799998E-04    9.6670568E-08
 -9.3749998E-04    6.5535957E-08
 -9.3699998E-04    2.8081892E-08
 -9.3649997E-04   -1.3261077E-08
 -9.3600003E-04   -5.5854056E-08
 -9.3550002E-04   -9.7474818E-08
 -9.3500002E-04   -1.3604003E-07
 -9.3450001E-04   -1.7029967E-07
 -9.3400001E-04   -1.9747596E-07
 -9.3350001E-04   -2.1590223E-07
 -9.3300000E-04   -2.2474516E-07
 -9.3250000E-04   -2.2351863E-07
 -9.3200000E-04   -2.1288234E-07
 -9.3149999E-04   -1.9276688E-07
 -9.3099999E-04   -1.6501251E-07
 -9.3049998E-04   -1.3128592E-07
 -9.2999998E-04   -9.2281539E-08
 -9.2949998E-04   -5.0777160E-08
 -9.2899997E-04   -9.2727905E-09
 -9.2850003E-04    3.1676020E-08
 -9.2800002E-04    7.1235938E-08
 -9.2750002E-04    1.0760140E-07
 -9.2700002E-04    1.3896687E-07
 -9.2650001E-04    1.6456842E-07
 -9.2600001E-04    1.8426719E-07
 -9.2550000E-04    1.9712567E-07
 -9.2500000E-04    2.0290082E-07
 -9.2450000E-04    2.0117596E-07
 -9.2399999E-04    1.9250665E-07
 -9.2349999E-04    1.7717066E-07
 -9.2299999E-04    1.5627911E-07
 -9.2249998E-04    1.3094312E-07
 -9.2199998E-04    1.0227379E-07
 -9.2149997E-04    7.1382217E-08
 -9.2100003E-04    3.8476760E-08
 -9.2050002E-04    5.2240670E-09
 -9.2000002E-04   -2.8045990E-08
 -9.1950002E-04   -5.9336891E-08
 -9.1900001E-04   -8.7468081E-08
 -9.1850001E-04   -1.1087705E-07
 -9.1800001E-04   -1.2831379E-07
 -9.1750000E-04   -1.3859774E-07
 -9.1700000E-04   -1.4082613E-07
 -9.1649999E-04   -1.3409615E-07
 -9.1599999E-04   -1.1778283E-07
 -9.1549999E-04   -9.2302805E-08
 -9.1499998E-04   -5.9218582E-08
 -9.1449998E-04   -2.0873911E-08
 -9.1399997E-04    1.9927388E-08
 -9.1349997E-04    6.0537744E-08
 -9.1300003E-04    9.7884225E-08
 -9.1250002E-04    1.2967517E-07
 -9.1200002E-04    1.5438278E-07
 -9.1150001E-04    1.6971538E-07
 -9.1100001E-04    1.7445767E-07
 -9.1050001E-04    1.6749853E-07
 -9.1000000E-04    1.4942825E-07
 -9.0950000E-04    1.2066347E-07
 -9.0899999E-04    8.4120870E-08
 -9.0849999E-04    4.1119872E-08
 -9.0799999E-04   -5.3533973E-09
 -9.0749998E-04   -5.3215601E-08
 -9.0699998E-04   -9.8300063E-08
 -9.0649998E-04   -1.3803731E-07
 -9.0599997E-04   -1.7062177E-07
 -9.0550003E-04   -1.9424792E-07
 -9.0500002E-04   -2.0655459E-07
 -9.0450002E-04   -2.0691677E-07
 -9.0400001E-04   -1.9561224E-07
 -9.0350001E-04   -1.7277989E-07
 -9.0300001E-04   -1.4119748E-07
 -9.0250000E-04   -1.0197612E-07
 -9.0200000E-04   -5.6713048E-08
 -9.0150000E-04   -9.6443751E-09
 -9.0099999E-04    3.6278500E-08
 -9.0049999E-04    7.9076408E-08
 -8.9999998E-04    1.1586739E-07
 -8.9949998E-04    1.4495002E-07
 -8.9899998E-04    1.6441459E-07
 -8.9849997E-04    1.7207357E-07
 -8.9800003E-04    1.6632973E-07
 -8.9750002E-04    1.4850254E-07
 -8.9700002E-04    1.1900861E-07
 -8.9650002E-04    7.8125758E-08
 -8.9600001E-04    2.8353965E-08
 -8.9550001E-04   -2.5584525E-08
 -8.9500000E-04   -7.9800827E-08
 -8.9450000E-04   -1.3012826E-07
 -8.9400000E-04   -1.7559458E-07
 -8.9349999E-04   -2.1196369E-07
 -8.9299999E-04   -2.3576334E-07
 -8.9249999E-04   -2.4616020E-07
 -8.9199998E-04   -2.4245981E-07
 -8.9149998E-04   -2.2471427E-07
 -8.9099997E-04   -1.9534542E-07
 -8.9050003E-04   -1.5483072E-07
 -8.9000002E-04   -1.0737153E-07
 -8.8950002E-04   -5.4842882E-08
 -8.8900002E-04   -1.7586698E-09
 -8.8850001E-04    4.9519993E-08
 -8.8800001E-04    9.8159759E-08
 -8.8750001E-04    1.3985508E-07
 -8.8700000E-04    1.7245316E-07
 -8.8650000E-04    1.9581512E-07
 -8.8599999E-04    2.0896874E-07
 -8.8549999E-04    2.1309455E-07
 -8.8499999E-04    2.1029328E-07
 -8.8449998E-04    1.9919338E-07
 -8.8399998E-04    1.8323234E-07
 -8.8349998E-04    1.6588243E-07
 -8.8299997E-04    1.4651862E-07
 -8.8250003E-04    1.2576591E-07
 -8.8200002E-04    1.0279097E-07
 -8.8150002E-04    7.7385465E-08
 -8.8100001E-04    5.1424404E-08
 -8.8050001E-04    2.4213348E-08
 -8.8000001E-04   -4.1956230E-09
 -8.7950000E-04   -3.3186183E-08
 -8.7900000E-04   -5.8287842E-08
 -8.7850000E-04   -7.7486710E-08
 -8.7799999E-04   -8.8491113E-08
 -8.7749999E-04   -9.1717716E-08
 -8.7699998E-04   -8.7652630E-08
 -8.7649998E-04   -7.4108350E-08
 -8.7599998E-04   -5.0676892E-08
 -8.7549997E-04   -1.8234994E-08
 -8.7500003E-04    2.1845819E-08
 -8.7450002E-04    6.7829433E-08
 -8.7400002E-04    1.1561861E-07
 -8.7350002E-04    1.5979670E-07
 -8.7300001E-04    1.9439145E-07
 -8.7250001E-04    2.1718063E-07
 -8.7200000E-04    2.2594200E-07
 -8.7150000E-04    2.1456445E-07
 -8.7100000E-04    1.8200629E-07
 -8.7049999E-04    1.2986472E-07
 -8.6999999E-04    6.1889750E-08
 -8.6949999E-04   -1.9210292E-08
 -8.6899998E-04   -1.0531039E-07
 -8.6849998E-04   -1.9002167E-07
 -8.6799997E-04   -2.6334408E-07
 -8.6750003E-04   -3.2055542E-07
 -8.6700002E-04   -3.5443338E-07
 -8.6650002E-04   -3.6442248E-07
 -8.6600002E-04   -3.4441146E-07
 -8.6550001E-04   -2.9495595E-07
 -8.6500001E-04   -2.1827813E-07
 -8.6450001E-04   -1.1708633E-07
 -8.6400000E-04    3.4632139E-09
 -8.6350000E-04    1.3637396E-07
 -8.6299999E-04    2.7331257E-07
 -8.6249999E-04    4.0414017E-07
 -8.6199999E-04    5.1913440E-07
 -8.6149998E-04    6.1218429E-07
 -8.6099998E-04    6.7078969E-07
 -8.6049997E-04    6.9022832E-07
 -8.5999997E-04    6.6688909E-07
 -8.5950003E-04    6.0132754E-07
 -8.5900002E-04    4.9882146E-07
 -8.5850002E-04    3.6853748E-07
 -8.5800001E-04    2.1755892E-07
 -8.5750001E-04    5.7274701E-08
 -8.5700001E-04   -1.0106515E-07
 -8.5650000E-04   -2.4829393E-07
 -8.5600000E-04   -3.7580048E-07
 -8.5549999E-04   -4.7080704E-07
 -8.5499999E-04   -5.3164689E-07
 -8.5449999E-04   -5.5526442E-07
 -8.5399998E-04   -5.4221522E-07
 -8.5349998E-04   -4.9916582E-07
 -8.5299998E-04   -4.3083861E-07
 -8.5249997E-04   -3.5056684E-07
 -8.5200003E-04   -2.6918391E-07
 -8.5150002E-04   -1.9863428E-07
 -8.5100002E-04   -1.4400477E-07
 -8.5050002E-04   -1.1444473E-07
 -8.5000001E-04   -1.1162084E-07
 -8.4950001E-04   -1.3199146E-07
 -8.4900000E-04   -1.7041769E-07
 -8.4850000E-04   -2.2301069E-07
 -8.4800000E-04   -2.8296486E-07
 -8.4749999E-04   -3.4153021E-07
 -8.4699999E-04   -3.8717894E-07
 -8.4649998E-04   -4.1192493E-07
 -8.4599998E-04   -4.0444866E-07
 -8.4549998E-04   -3.5961128E-07
 -8.4499997E-04   -2.7157938E-07
 -8.4450003E-04   -1.4882521E-07
 -8.4400002E-04    1.8457101E-09
 -8.4350002E-04    1.7265560E-07
 -8.4300002E-04    3.4666002E-07
 -8.4250001E-04    5.0760889E-07
 -8.4200001E-04    6.3869669E-07
 -8.4150000E-04    7.3103450E-07
 -8.4100000E-04    7.7621957E-07
 -8.4050000E-04    7.6959896E-07
 -8.3999999E-04    7.1145058E-07
 -8.3949999E-04    6.0739933E-07
 -8.3899999E-04    4.7105641E-07
 -8.3849998E-04    3.1506062E-07
 -8.3799998E-04    1.5628703E-07
 -8.3749997E-04    4.7356004E-09
 -8.3700003E-04   -1.2070473E-07
 -8.3650002E-04   -2.0947837E-07
 -8.3600002E-04   -2.5714090E-07
 -8.3550002E-04   -2.6299784E-07
 -8.3500001E-04   -2.3191032E-07
 -8.3450001E-04   -1.7089221E-07
 -8.3400001E-04   -8.8832394E-08
 -8.3350000E-04    1.2135497E-09
 -8.3300000E-04    8.2578929E-08
 -8.3249999E-04    1.4019430E-07
 -8.3199999E-04    1.6392076E-07
 -8.3149999E-04    1.4875830E-07
 -8.3099998E-04    9.4151353E-08
 -8.3049998E-04    6.7666002E-09
 -8.2999998E-04   -1.0284040E-07
 -8.2949997E-04   -2.1550295E-07
 -8.2900003E-04   -3.2177658E-07
 -8.2850002E-04   -4.1402237E-07
 -8.2800002E-04   -4.8154590E-07
 -8.2750001E-04   -5.1281938E-07
 -8.2700001E-04   -4.9978723E-07
 -8.2650001E-04   -4.4460222E-07
 -8.2600000E-04   -3.6087550E-07
 -8.2550000E-04   -2.5742648E-07
 -8.2500000E-04   -1.5137330E-07
 -8.2449999E-04   -6.3618742E-08
 -8.2399999E-04   -5.9336989E-09
 -8.2349998E-04    1.1959582E-08
 -8.2299998E-04   -2.5077838E-08
 -8.2249998E-04   -1.1558763E-07
 -8.2199997E-04   -2.5234758E-07
 -8.2150003E-04   -4.3146881E-07
 -8.2100002E-04   -6.3614573E-07
 -8.2050002E-04   -8.4485049E-07
 -8.2000002E-04   -1.0218887E-06
 -8.1950001E-04   -1.1412878E-06
 -8.1900001E-04   -1.1774927E-06
 -8.1850000E-04   -1.1121695E-06
 -8.1800000E-04   -9.3030968E-07
 -8.1750000E-04   -6.3324126E-07
 -8.1699999E-04   -2.2325590E-07
 -8.1649999E-04    2.6950755E-07
 -8.1599999E-04    8.2393791E-07
 -8.1549998E-04    1.3954517E-06
 -8.1499998E-04    1.9533547E-06
 -8.1449997E-04    2.4465353E-06
 -8.1400003E-04    2.8408274E-06
 -8.1350002E-04    3.1028969E-06
 -8.1300002E-04    3.2049666E-06
 -8.1250002E-04    3.1434247E-06
 -8.1200001E-04    2.9107714E-06
 -8.1150001E-04    2.5176316E-06
 -8.1100001E-04    1.9802903E-06
 -8.1050000E-04    1.3310041E-06
 -8.1000000E-04    6.1421770E-07
 -8.0949999E-04   -1.1993015E-07
 -8.0899999E-04   -8.1907825E-07
 -8.0849999E-04   -1.4443375E-06
 -8.0799998E-04   -1.9598745E-06
 -8.0749998E-04   -2.3315224E-06
 -8.0699997E-04   -2.5492814E-06
 -8.0649997E-04   -2.6048178E-06
 -8.0600003E-04   -2.5081320E-06
 -8.0550002E-04   -2.2714455E-06
 -8.0500002E-04   -1.9318422E-06
 -8.0450001E-04   -1.5207803E-06
 -8.0400001E-04   -1.0749959E-06
 -8.0350001E-04   -6.3344743E-07
 -8.0300000E-04   -2.3516277E-07
 -8.0250000E-04    9.1177434E-08
 -8.0200000E-04    3.1432302E-07
 -8.0149999E-04    4.2635733E-07
 -8.0099999E-04    4.2394689E-07
 -8.0049998E-04    3.0889728E-07
 -7.9999998E-04    1.0648623E-07
 -7.9949998E-04   -1.6314735E-07
 -7.9899997E-04   -4.7194786E-07
 -7.9850003E-04   -7.8741522E-07
 -7.9800002E-04   -1.0776049E-06
 -7.9750002E-04   -1.3096696E-06
 -7.9700002E-04   -1.4670815E-06
 -7.9650001E-04   -1.5281043E-06
 -7.9600001E-04   -1.4844047E-06
 -7.9550000E-04   -1.3419549E-06
 -7.9500000E-04   -1.1126991E-06
 -7.9450000E-04   -8.0949354E-07
 -7.9399999E-04   -4.5439535E-07
 -7.9349999E-04   -7.4904591E-08
 -7.9299998E-04    2.9719047E-07
 -7.9249998E-04    6.4088283E-07
 -7.9199998E-04    9.2193625E-07
 -7.9149997E-04    1.1138924E-06
 -7.9100003E-04    1.2065428E-06
 -7.9050002E-04    1.2030820E-06
 -7.9000002E-04    1.1153154E-06
 -7.8950002E-04    9.5379858E-07
 -7.8900001E-04    7.4033727E-07
 -7.8850001E-04    4.9576471E-07
 -7.8800000E-04    2.5494208E-07
 -7.8750000E-04    5.2591695E-08
 -7.8700000E-04   -7.9064129E-08
 -7.8649999E-04   -1.1794202E-07
 -7.8599999E-04   -4.9458588E-08
 -7.8549999E-04    1.3402511E-07
 -7.8499998E-04    4.1702296E-07
 -7.8449998E-04    7.8272939E-07
 -7.8399997E-04    1.2038528E-06
 -7.8350003E-04    1.6491427E-06
 -7.8300002E-04    2.0758216E-06
 -7.8250002E-04    2.4555561E-06
 -7.8200002E-04    2.7311239E-06
 -7.8150001E-04    2.8764136E-06
 -7.8100001E-04    2.8744807E-06
 -7.8050001E-04    2.7044921E-06
 -7.8000000E-04    2.3639475E-06
 -7.7950000E-04    1.8574302E-06
 -7.7899999E-04    1.2014683E-06
 -7.7849999E-04    4.2863101E-07
 -7.7799999E-04   -4.1753995E-07
 -7.7749998E-04   -1.2889889E-06
 -7.7699998E-04   -2.1571045E-06
 -7.7649998E-04   -2.9641089E-06
 -7.7599997E-04   -3.6486135E-06
 -7.7550003E-04   -4.1806179E-06
 -7.7500002E-04   -4.5131774E-06
 -7.7450002E-04   -4.6540699E-06
 -7.7400001E-04   -4.5877405E-06
 -7.7350001E-04   -4.3247437E-06
 -7.7300001E-04   -3.8764688E-06
 -7.7250000E-04   -3.2822220E-06
 -7.7200000E-04   -2.5858221E-06
 -7.7150000E-04   -1.8450644E-06
 -7.7099999E-04   -1.0850705E-06
 -7.7049999E-04   -3.4632660E-07
 -7.6999998E-04    3.6158400E-07
 -7.6949998E-04    9.8643909E-07
 -7.6899998E-04    1.5232387E-06
 -7.6849997E-04    1.9675385E-06
 -7.6800003E-04    2.3265607E-06
 -7.6750002E-04    2.6016940E-06
 -7.6700002E-04    2.8001612E-06
 -7.6650002E-04    2.9269613E-06
 -7.6600001E-04    2.9848732E-06
 -7.6550001E-04    2.9816738E-06
 -7.6500000E-04    2.9297244E-06
 -7.6450000E-04    2.8293030E-06
 -7.6400000E-04    2.6876312E-06
 -7.6349999E-04    2.4911676E-06
 -7.6299999E-04    2.2244260E-06
 -7.6249999E-04    1.8907393E-06
 -7.6199998E-04    1.4763579E-06
 -7.6149998E-04    9.8058695E-07
 -7.6099997E-04    4.2078784E-07
 -7.6050003E-04   -1.7790050E-07
 -7.6000002E-04   -7.8429753E-07
 -7.5950002E-04   -1.3464587E-06
 -7.5900002E-04   -1.8225087E-06
 -7.5850001E-04   -2.1907808E-06
 -7.5800001E-04   -2.4331848E-06
 -7.5750001E-04   -2.5174636E-06
 -7.5700000E-04   -2.4479921E-06
 -7.5650000E-04   -2.2241795E-06
 -7.5599999E-04   -1.8587696E-06
 -7.5549999E-04   -1.3593315E-06
 -7.5499999E-04   -7.6322624E-07
 -7.5449998E-04   -1.3462079E-07
 -7.5399998E-04    4.5717923E-07
 -7.5349997E-04    9.7675718E-07
 -7.5299997E-04    1.3670293E-06
 -7.5250003E-04    1.5570234E-06
 -7.5200002E-04    1.5368784E-06
 -7.5150002E-04    1.3101358E-06
 -7.5100001E-04    8.9707351E-07
 -7.5050001E-04    3.2102486E-07
 -7.5000001E-04   -3.6127395E-07
 -7.4950000E-04   -1.0881561E-06
 -7.4900000E-04   -1.7965660E-06
 -7.4850000E-04   -2.4130313E-06
 -7.4799999E-04   -2.8769964E-06
 -7.4749999E-04   -3.1559609E-06
 -7.4699998E-04   -3.1935360E-06
 -7.4649998E-04   -2.9824996E-06
 -7.4599998E-04   -2.5264628E-06