 -1.2000001E-03    1.0000000E-24
 -1.1995001E-03    1.0000000E-24
 -1.1990000E-03    1.0000000E-24
 -1.1985000E-03    1.0000000E-24
 -1.1980000E-03    1.0000000E-24
 -1.1975000E-03    1.0000000E-24
 -1.1970000E-03    1.0000000E-24
 -1.1965000E-03    1.0000000E-24
 -1.1960000E-03    1.0000001E-24
 -1.1955000E-03    1.0000001E-24
 -1.1950000E-03    1.0000001E-24
 -1.1945000E-03    1.0000001E-24
 -1.1940000E-03    1.0000001E-24
 -1.1935000E-03    1.0000001E-24
 -1.1930000E-03    1.0000001E-24
 -1.1925000E-03    1.0000001E-24
 -1.1920000E-03    1.0000001E-24
 -1.1915000E-03    1.0000001E-24
 -1.1910000E-03    1.0000001E-24
 -1.1905000E-03    1.0000001E-24
 -1.1900000E-03    1.0000001E-24
 -1.1895000E-03    1.0000001E-24
 -1.1890000E-03    1.0000001E-24
 -1.1885000E-03    1.0000001E-24
 -1.1880000E-03    1.0000001E-24
 -1.1875000E-03    1.0000001E-24
 -1.1870000E-03    1.0000002E-24
 -1.1865000E-03    1.0000002E-24
 -1.1860000E-03    1.0000002E-24
 -1.1854999E-03    1.0000002E-24
 -1.1849999E-03    1.0000002E-24
 -1.1845001E-03    1.0000002E-24
 -1.1840001E-03    1.0000002E-24
 -1.1835000E-03    1.0000002E-24
 -1.1830000E-03    1.0000002E-24
 -1.1825000E-03    1.0000002E-24
 -1.1820000E-03    1.0000002E-24
 -1.1815000E-03    1.0000002E-24
 -1.1810000E-03    1.0000002E-24
 -1.1805000E-03    1.0000002E-24
 -1.1800000E-03    1.0000002E-24
 -1.1795000E-03    1.0000003E-24
 -1.1790000E-03    1.0000005E-24
 -1.1785000E-03    1.0000009E-24
 -1.1780000E-03    1.0000018E-24
 -1.1775000E-03    1.0000037E-24
 -1.1770000E-03    1.0000072E-24
 -1.1765000E-03    1.0000138E-24
 -1.1760000E-03    1.0000258E-24
 -1.1755000E-03    1.0000465E-24
 -1.1750000E-03    1.0000812E-24
 -1.1745000E-03    1.0001371E-24
 -1.1740000E-03    1.0002232E-24
 -1.1735000E-03    1.0003490E-24
 -1.1730000E-03    1.0005215E-24
 -1.1725000E-03    1.0007375E-24
 -1.1720000E-03    1.0009711E-24
 -1.1715000E-03    1.0011495E-24
 -1.1710000E-03    1.0011167E-24
 -1.1704999E-03    1.0005782E-24
 -1.1699999E-03    9.9902292E-25
 -1.1695001E-03    9.9562194E-25
 -1.1690001E-03    9.8910891E-25
 -1.1685000E-03    9.7765810E-25
 -1.1680000E-03    9.5879732E-25
 -1.1675000E-03    9.2941679E-25
 -1.1670000E-03    8.8597954E-25
 -1.1665000E-03    8.2508417E-25
 -1.1660000E-03    7.4458909E-25
 -1.1655000E-03    6.4556393E-25
 -1.1650000E-03    5.3536972E-25
 -1.1645000E-03    4.3216778E-25
 -1.1640000E-03    3.7107339E-25
 -1.1635000E-03    4.1195892E-25
 -1.1630000E-03    6.4851328E-25
 -1.1625000E-03    1.2175146E-24
 -1.1620000E-03    2.3063128E-24
 -1.1615000E-03    4.1552183E-24
 -1.1610000E-03    7.0498661E-24
 -1.1605000E-03    1.1296779E-23
 -1.1600000E-03    1.7173516E-23
 -1.1595000E-03    2.4843366E-23
 -1.1590000E-03    3.4224162E-23
 -1.1585000E-03    4.4802235E-23
 -1.1580000E-03    5.5386972E-23
 -1.1575000E-03    6.3810031E-23
 -1.1570000E-03    6.6587206E-23
 -1.1565000E-03    5.8581556E-23
 -1.1560000E-03    3.2733726E-23
 -1.1555000E-03   -2.0040563E-23
 -1.1549999E-03   -1.1064750E-22
 -1.1544999E-03   -2.5112972E-22
 -1.1540001E-03   -4.5328967E-22
 -1.1535001E-03   -7.2639786E-22
 -1.1530000E-03   -1.0737772E-21
 -1.1525000E-03   -1.4881167E-21
 -1.1520000E-03   -1.9454941E-21
 -1.1515000E-03   -2.3982943E-21
 -1.1510000E-03   -2.7675151E-21
 -1.1505000E-03   -2.9353613E-21
 -1.1500000E-03   -2.7395170E-21
 -1.1495000E-03   -1.9710686E-21
 -1.1490000E-03   -3.7860744E-22
 -1.1485000E-03    2.3184477E-21
 -1.1480000E-03    6.4039709E-21
 -1.1475000E-03    1.2123415E-20
 -1.1470000E-03    1.9623585E-20
 -1.1465000E-03    2.8872558E-20
 -1.1460000E-03    3.9560682E-20
 -1.1455000E-03    5.0986957E-20
 -1.1450000E-03    6.1939523E-20
 -1.1445000E-03    7.0584569E-20
 -1.1440000E-03    7.4384184E-20
 -1.1435000E-03    7.0070224E-20
 -1.1430000E-03    5.3707050E-20
 -1.1425000E-03    2.0880147E-20
 -1.1420000E-03   -3.2951583E-20
 -1.1415000E-03   -1.1190600E-19
 -1.1410000E-03   -2.1890733E-19
 -1.1405000E-03   -3.5469109E-19
 -1.1399999E-03   -5.1660872E-19
 -1.1394999E-03   -6.9729470E-19
 -1.1390001E-03   -8.8330678E-19
 -1.1385001E-03   -1.0539054E-18
 -1.1380001E-03   -1.1801937E-18
 -1.1375000E-03   -1.2248968E-18
 -1.1370000E-03   -1.1430981E-18
 -1.1365000E-03   -8.8426766E-19
 -1.1360000E-03   -3.9590686E-19
 -1.1355000E-03    3.7094155E-19
 -1.1350000E-03    1.4541833E-18
 -1.1345000E-03    2.8712299E-18
 -1.1340000E-03    4.6079490E-18
 -1.1335000E-03    6.6066791E-18
 -1.1330000E-03    8.7543486E-18
 -1.1325000E-03    1.0872177E-17
 -1.1320000E-03    1.2708811E-17
 -1.1315000E-03    1.3939103E-17
 -1.1310000E-03    1.4170926E-17
 -1.1305000E-03    1.2962383E-17
 -1.1300000E-03    9.8515300E-18
 -1.1295000E-03    4.3999834E-18
 -1.1290000E-03   -3.7492156E-18
 -1.1285000E-03   -1.4800657E-17
 -1.1280000E-03   -2.8725643E-17
 -1.1275000E-03   -4.5176674E-17
 -1.1270000E-03   -6.3405114E-17
 -1.1265000E-03   -8.2192471E-17
 -1.1260000E-03   -9.9807500E-17
 -1.1255000E-03   -1.1400328E-16
 -1.1250000E-03   -1.2206845E-16
 -1.1244999E-03   -1.2094603E-16
 -1.1239999E-03   -1.0743037E-16
 -1.1235001E-03   -7.8447414E-17
 -1.1230001E-03   -3.1417223E-17
 -1.1225000E-03    3.5312893E-17
 -1.1220000E-03    1.2198660E-16
 -1.1215000E-03    2.2694284E-16
 -1.1210000E-03    3.4615354E-16
 -1.1205000E-03    4.7285344E-16
 -1.1200000E-03    5.9732959E-16
 -1.1195000E-03    7.0694249E-16
 -1.1190000E-03    7.8644828E-16
 -1.1185000E-03    8.1868223E-16
 -1.1180000E-03    7.8564392E-16
 -1.1175000E-03    6.6999496E-16
 -1.1170000E-03    4.5694219E-16
 -1.1165000E-03    1.3643019E-16
 -1.1160000E-03   -2.9448408E-16
 -1.1155000E-03   -8.2925981E-16
 -1.1150000E-03   -1.4497384E-15
 -1.1145000E-03   -2.1245251E-15
 -1.1140000E-03   -2.8081912E-15
 -1.1135000E-03   -3.4416005E-15
 -1.1130000E-03   -3.9536355E-15
 -1.1125000E-03   -4.2645407E-15
 -1.1120000E-03   -4.2909838E-15
 -1.1115000E-03   -3.9528152E-15
 -1.1110000E-03   -3.1813084E-15
 -1.1105000E-03   -1.9284893E-15
 -1.1100000E-03   -1.7693229E-16
 -1.1094999E-03    2.0507818E-15
 -1.1089999E-03    4.6839351E-15
 -1.1084999E-03    7.5979643E-15
 -1.1080001E-03    1.0612314E-14
 -1.1075001E-03    1.3492916E-14
 -1.1070000E-03    1.5960184E-14
 -1.1065000E-03    1.7703073E-14
 -1.1060000E-03    1.8399350E-14
 -1.1055000E-03    1.7741612E-14
 -1.1050000E-03    1.5467967E-14
 -1.1045000E-03    1.1395626E-14
 -1.1040000E-03    5.4549167E-15
 -1.1035000E-03   -2.2792606E-15
 -1.1030000E-03   -1.1562036E-14
 -1.1025000E-03   -2.1962843E-14
 -1.1020000E-03   -3.2862886E-14
 -1.1015000E-03   -4.3468830E-14
 -1.1010000E-03   -5.2844888E-14
 -1.1005000E-03   -5.9964173E-14
 -1.1000000E-03   -6.3778633E-14
 -1.0995000E-03   -6.3304972E-14
 -1.0990000E-03   -5.7722056E-14
 -1.0985000E-03   -4.6473167E-14
 -1.0980000E-03   -2.9365030E-14
 -1.0975000E-03   -6.6538995E-15
 -1.0970000E-03    2.0891290E-14
 -1.0965000E-03    5.1958800E-14
 -1.0960000E-03    8.4705673E-14
 -1.0955000E-03    1.1681765E-13
 -1.0950000E-03    1.4562077E-13
 -1.0945000E-03    1.6824373E-13
 -1.0939999E-03    1.8182568E-13
 -1.0934999E-03    1.8375844E-13
 -1.0930001E-03    1.7194780E-13
 -1.0925001E-03    1.4507347E-13
 -1.0920000E-03    1.0282489E-13
 -1.0915000E-03    4.6087527E-14
 -1.0910000E-03   -2.2944449E-14
 -1.0905000E-03   -1.0075070E-13
 -1.0900000E-03   -1.8257885E-13
 -1.0895000E-03   -2.6265874E-13
 -1.0890000E-03   -3.3453562E-13
 -1.0885000E-03   -3.9151017E-13
 -1.0880000E-03   -4.2716170E-13
 -1.0875000E-03   -4.3591950E-13
 -1.0870000E-03   -4.1363825E-13
 -1.0865000E-03   -3.5812632E-13
 -1.0860000E-03   -2.6957375E-13
 -1.0855000E-03   -1.5082786E-13
 -1.0850000E-03   -7.4724340E-15
 -1.0845000E-03    1.5232188E-13
 -1.0840000E-03    3.1819024E-13
 -1.0835000E-03    4.7820374E-13
 -1.0830000E-03    6.1970703E-13
 -1.0825000E-03    7.3031159E-13
 -1.0820000E-03    7.9896961E-13
 -1.0815000E-03    8.1703914E-13
 -1.0810000E-03    7.7923914E-13
 -1.0805000E-03    6.8439335E-13
 -1.0800000E-03    5.3586974E-13
 -1.0795000E-03    3.4164194E-13
 -1.0790000E-03    1.1392811E-13
 -1.0784999E-03   -1.3160026E-13
 -1.0779999E-03   -3.7700531E-13
 -1.0775001E-03   -6.0358646E-13
 -1.0770001E-03   -7.9358064E-13
 -1.0765000E-03   -9.3190711E-13
 -1.0760000E-03   -1.0077790E-12
 -1.0755000E-03   -1.0160042E-12
 -1.0750000E-03   -9.5780317E-13
 -1.0745000E-03   -8.4101118E-13
 -1.0740000E-03   -6.7957673E-13
 -1.0735000E-03   -4.9233821E-13
 -1.0730000E-03   -3.0113490E-13
 -1.0725000E-03   -1.2838978E-13
 -1.0720000E-03    5.6246143E-15
 -1.0715000E-03    8.5564023E-14
 -1.0710000E-03    1.0352225E-13
 -1.0705000E-03    6.0951264E-14
 -1.0700000E-03   -3.0305233E-14
 -1.0695000E-03   -1.4810116E-13
 -1.0690000E-03   -2.6134214E-13
 -1.0685000E-03   -3.3262393E-13
 -1.0680000E-03   -3.2203447E-13
 -1.0675000E-03   -1.9185372E-13
 -1.0670000E-03    8.8248250E-14
 -1.0665000E-03    5.3602272E-13
 -1.0660000E-03    1.1520344E-12
 -1.0655000E-03    1.9162157E-12
 -1.0650000E-03    2.7861140E-12
 -1.0645000E-03    3.6972422E-12
 -1.0640000E-03    4.5657718E-12
 -1.0634999E-03    5.2935846E-12
 -1.0629999E-03    5.7754461E-12
 -1.0625001E-03    5.9078319E-12
 -1.0620001E-03    5.5986938E-12
 -1.0615001E-03    4.7773127E-12
 -1.0610000E-03    3.4032798E-12
 -1.0605000E-03    1.4736842E-12
 -1.0600000E-03   -9.7230893E-13
 -1.0595000E-03   -3.8520667E-12
 -1.0590000E-03   -7.0415449E-12
 -1.0585000E-03   -1.0380697E-11
 -1.0580000E-03   -1.3681747E-11
 -1.0575000E-03   -1.6739493E-11
 -1.0570000E-03   -1.9342573E-11
 -1.0565000E-03   -2.1284467E-11
 -1.0560000E-03   -2.2373122E-11
 -1.0555000E-03   -2.2438242E-11
 -1.0550000E-03   -2.1335815E-11
 -1.0545000E-03   -1.8949899E-11
 -1.0540000E-03   -1.5192439E-11
 -1.0535000E-03   -1.0002437E-11
 -1.0530000E-03   -3.3464000E-12
 -1.0525000E-03    4.7777763E-12
 -1.0520000E-03    1.4331333E-11
 -1.0515000E-03    2.5217894E-11
 -1.0510000E-03    3.7258661E-11
 -1.0505000E-03    5.0160150E-11
 -1.0500000E-03    6.3476793E-11
 -1.0495000E-03    7.6572637E-11
 -1.0490000E-03    8.8588387E-11
 -1.0485000E-03    9.8421653E-11
 -1.0479999E-03    1.0472935E-10
 -1.0474999E-03    1.0596138E-10
 -1.0470001E-03    1.0043373E-10
 -1.0465001E-03    8.6446635E-11
 -1.0460000E-03    6.2449802E-11
 -1.0455000E-03    2.7251172E-11
 -1.0450000E-03   -1.9740393E-11
 -1.0445000E-03   -7.8255430E-11
 -1.0440000E-03   -1.4691084E-10
 -1.0435000E-03   -2.2299369E-10
 -1.0430000E-03   -3.0231612E-10
 -1.0425000E-03   -3.7917780E-10
 -1.0420000E-03   -4.4647039E-10
 -1.0415000E-03   -4.9595228E-10
 -1.0410000E-03   -5.1871213E-10
 -1.0405000E-03   -5.0582316E-10
 -1.0400000E-03   -4.4917220E-10
 -1.0395000E-03   -3.4242592E-10
 -1.0390000E-03   -1.8207094E-10
 -1.0385000E-03    3.1554592E-11
 -1.0380000E-03    2.9334160E-10
 -1.0375000E-03    5.9271887E-10
 -1.0370000E-03    9.1330910E-10
 -1.0365000E-03    1.2330463E-09
 -1.0360000E-03    1.5248472E-09
 -1.0355000E-03    1.7578963E-09
 -1.0350000E-03    1.8995612E-09
 -1.0345000E-03    1.9178936E-09
 -1.0340000E-03    1.7846096E-09
 -1.0335000E-03    1.4783754E-09
 -1.0329999E-03    9.8815811E-10
 -1.0324999E-03    3.1634698E-10
 -1.0319999E-03   -5.1868349E-10
 -1.0315001E-03   -1.4809176E-09
 -1.0310001E-03   -2.5162774E-09
 -1.0305000E-03   -3.5537169E-09
 -1.0300000E-03   -4.5080264E-09
 -1.0295000E-03   -5.2844249E-09
 -1.0290000E-03   -5.7848650E-09
 -1.0285000E-03   -5.9158114E-09
 -1.0280000E-03   -5.5970824E-09
 -1.0275000E-03   -4.7711519E-09
 -1.0270000E-03   -3.4121943E-09
 -1.0265000E-03   -1.5340174E-09
 -1.0260000E-03    8.0400175E-10
 -1.0255000E-03    3.4938450E-09
 -1.0250000E-03    6.3794148E-09
 -1.0245000E-03    9.2612984E-09
 -1.0240000E-03    1.1906033E-08
 -1.0235000E-03    1.4059843E-08
 -1.0230000E-03    1.5466384E-08
 -1.0225000E-03    1.5887650E-08
 -1.0220000E-03    1.5126766E-08
 -1.0215000E-03    1.3050999E-08
 -1.0210000E-03    9.6130837E-09
 -1.0205000E-03    4.8687747E-09
 -1.0200000E-03   -1.0114642E-09
 -1.0195000E-03   -7.7385218E-09
 -1.0190000E-03   -1.4909984E-08
 -1.0185000E-03   -2.2025704E-08
 -1.0180000E-03   -2.8513849E-08
 -1.0174999E-03   -3.3766778E-08
 -1.0169999E-03   -3.7185185E-08
 -1.0165001E-03   -3.8228052E-08
 -1.0160001E-03   -3.6465035E-08
 -1.0155000E-03   -3.1627309E-08
 -1.0150000E-03   -2.3652380E-08
 -1.0145000E-03   -1.2718348E-08
 -1.0140000E-03    7.3674750E-10
 -1.0135000E-03    1.6014106E-08
 -1.0130000E-03    3.2174484E-08
 -1.0125000E-03    4.8080818E-08
 -1.0120000E-03    6.2462618E-08
 -1.0115000E-03    7.3999772E-08
 -1.0110000E-03    8.1421305E-08
 -1.0105000E-03    8.3613116E-08
 -1.0100000E-03    7.9726853E-08
 -1.0095000E-03    6.9281285E-08
 -1.0090000E-03    5.2247000E-08
 -1.0085000E-03    2.9105292E-08
 -1.0080000E-03    8.7344937E-10
 -1.0075000E-03   -3.0909831E-08
 -1.0070000E-03   -6.4242464E-08
 -1.0065000E-03   -9.6760978E-08
 -1.0060000E-03   -1.2588339E-07
 -1.0055000E-03   -1.4898635E-07
 -1.0050000E-03   -1.6360597E-07
 -1.0045000E-03   -1.6764925E-07
 -1.0040000E-03   -1.5959992E-07
 -1.0035000E-03   -1.3870188E-07
 -1.0030000E-03   -1.0510282E-07
 -1.0025000E-03   -5.9942231E-08
 -1.0019999E-03   -5.3707501E-09
 -1.0014999E-03    5.5508135E-08
 -1.0010001E-03    1.1877754E-07
 -1.0005001E-03    1.7992524E-07
 -1.0000000E-03    2.3413112E-07
 -9.9950004E-04    2.7660823E-07
 -9.9900004E-04    3.0297579E-07
 -9.9850004E-04    3.0963787E-07
 -9.9800003E-04    2.9413812E-07
 -9.9750003E-04    2.5546012E-07
 -9.9700002E-04    1.9424468E-07
 -9.9650002E-04    1.1289851E-07
 -9.9600002E-04    1.5575827E-08
 -9.9550001E-04   -9.1977547E-08
 -9.9500001E-04   -2.0271790E-07
 -9.9450001E-04   -3.0872457E-07
 -9.9400000E-04   -4.0172642E-07
 -9.9350000E-04   -4.7370145E-07
 -9.9299999E-04   -5.1750925E-07
 -9.9249999E-04   -5.2750931E-07
 -9.9199999E-04   -5.0011562E-07
 -9.9149998E-04   -4.3423887E-07
 -9.9099998E-04   -3.3157218E-07
 -9.9049998E-04   -1.9668605E-07
 -9.8999997E-04   -3.6909427E-08
 -9.8949997E-04    1.3801004E-07
 -9.8899996E-04    3.1645757E-07
 -9.8849996E-04    4.8568705E-07
 -9.8799996E-04    6.3269778E-07
 -9.8749995E-04    7.4519426E-07
 -9.8699995E-04    8.1255968E-07
 -9.8649994E-04    8.2676968E-07
 -9.8600006E-04    7.8317004E-07
 -9.8550005E-04    6.8104930E-07
 -9.8500005E-04    5.2394859E-07
 -9.8450005E-04    3.1966749E-07
 -9.8400004E-04    7.9946069E-08
 -9.8350004E-04   -1.8017197E-07
 -9.8300003E-04   -4.4326492E-07
 -9.8250003E-04   -6.9069301E-07
 -9.8200003E-04   -9.0391563E-07
 -9.8150002E-04   -1.0658737E-06
 -9.8100002E-04   -1.1623330E-06
 -9.8050002E-04   -1.1830822E-06
 -9.8000001E-04   -1.1228867E-06
 -9.7950001E-04   -9.8211126E-07
 -9.7900000E-04   -7.6694818E-07
 -9.7850000E-04   -4.8921481E-07
 -9.7800000E-04   -1.6571815E-07
 -9.7749999E-04    1.8278357E-07
 -9.7699999E-04    5.3295793E-07
 -9.7649998E-04    8.6051955E-07
 -9.7599998E-04    1.1419794E-06
 -9.7549998E-04    1.3563902E-06
 -9.7499997E-04    1.4869521E-06
 -9.7450003E-04    1.5223499E-06
 -9.7400002E-04    1.4577092E-06
 -9.7350002E-04    1.2950890E-06
 -9.7300002E-04    1.0434574E-06
 -9.7250001E-04    7.1814725E-07
 -9.7200001E-04    3.3981985E-07
 -9.7150001E-04   -6.6985905E-08
 -9.7100000E-04   -4.7561042E-07
 -9.7050000E-04   -8.5919976E-07
 -9.6999999E-04   -1.1926483E-06
 -9.6949999E-04   -1.4544022E-06
 -9.6899999E-04   -1.6279778E-06
 -9.6849998E-04   -1.7030717E-06
 -9.6799998E-04   -1.6761746E-06
 -9.6749997E-04   -1.5506444E-06
 -9.6700003E-04   -1.3362354E-06
 -9.6650003E-04   -1.0481413E-06
 -9.6600002E-04   -7.0563533E-07
 -9.6550002E-04   -3.3044577E-07
 -9.6500001E-04    5.4987179E-08
 -9.6450001E-04    4.2920632E-07
 -9.6400001E-04    7.7322949E-07
 -9.6350000E-04    1.0717039E-06
 -9.6300000E-04    1.3136228E-06
 -9.6249999E-04    1.4925528E-06
 -9.6199999E-04    1.6063706E-06
 -9.6149999E-04    1.6565626E-06
 -9.6099998E-04    1.6471921E-06
 -9.6049998E-04    1.5836757E-06
 -9.5999998E-04    1.4715391E-06
 -9.5949997E-04    1.3153268E-06
 -9.5900003E-04    1.1178302E-06
 -9.5850002E-04    8.7976514E-07
 -9.5800002E-04    5.9998291E-07
 -9.5750001E-04    2.7622960E-07
 -9.5700001E-04   -9.3593698E-08
 -9.5650001E-04   -5.0979520E-07
 -9.5600000E-04   -9.6906695E-07
 -9.5550000E-04   -1.4627047E-06
 -9.5500000E-04   -1.9751367E-06
 -9.5449999E-04   -2.4830238E-06
 -9.5399999E-04   -2.9551634E-06
 -9.5349998E-04   -3.3533763E-06
 -9.5299998E-04   -3.6344620E-06
 -9.5249998E-04   -3.7532077E-06
 -9.5199997E-04   -3.6663184E-06
 -9.5150003E-04   -3.3370111E-06
 -9.5100002E-04   -2.7399158E-06
 -9.5050002E-04   -1.8658301E-06
 -9.5000002E-04   -7.2583231E-07
 -9.4950001E-04    6.4575676E-07
 -9.4900001E-04    2.1900344E-06
 -9.4850000E-04    3.8241747E-06
 -9.4800000E-04    5.4443267E-06
 -9.4750000E-04    6.9308262E-06
 -9.4699999E-04    8.1555636E-06
 -9.4649999E-04    8.9911755E-06
 -9.4599999E-04    9.3214794E-06
 -9.4549998E-04    9.0524200E-06
 -9.4499998E-04    8.1226417E-06
 -9.4449997E-04    6.5127319E-06
 -9.4400003E-04    4.2522124E-06
 -9.4350002E-04    1.4233876E-06
 -9.4300002E-04   -1.8386053E-06
 -9.4250002E-04   -5.3500030E-06
 -9.4200001E-04   -8.8869911E-06
 -9.4150001E-04   -1.2198427E-05
 -9.4100001E-04   -1.5022111E-05
 -9.4050000E-04   -1.7103657E-05
 -9.4000000E-04   -1.8216699E-05
 -9.3949999E-04   -1.8182951E-05
 -9.3899999E-04   -1.6890515E-05
 -9.3849999E-04   -1.4308779E-05
 -9.3799998E-04   -1.0498467E-05
 -9.3749998E-04   -5.6155577E-06
 -9.3699998E-04    9.1745520E-08
 -9.3649997E-04    6.2933582E-06
 -9.3600003E-04    1.2594797E-05
 -9.3550002E-04    1.8561017E-05
 -9.3500002E-04    2.3745266E-05
 -9.3450001E-04    2.7721127E-05
 -9.3400001E-04    3.0115527E-05
 -9.3350001E-04    3.0640229E-05
 -9.3300000E-04    2.9119310E-05
 -9.3250000E-04    2.5510195E-05
 -9.3200000E-04    1.9916239E-05
 -9.3149999E-04    1.2589278E-05
 -9.3099999E-04    3.9213078E-06
 -9.3049998E-04   -5.5747842E-06
 -9.2999998E-04   -1.5294681E-05
 -9.2949998E-04   -2.4580686E-05
 -9.2899997E-04   -3.2766020E-05
 -9.2850003E-04   -3.9222374E-05
 -9.2800002E-04   -4.3407392E-05
 -9.2750002E-04   -4.4908411E-05
 -9.2700002E-04   -4.3479115E-05
 -9.2650001E-04   -3.9065857E-05
 -9.2600001E-04   -3.1821255E-05
 -9.2550000E-04   -2.2103402E-05
 -9.2500000E-04   -1.0460004E-05
 -9.2450000E-04    2.4019948E-06
 -9.2399999E-04    1.5659733E-05
 -9.2349999E-04    2.8428030E-05
 -9.2299999E-04    3.9819737E-05
 -9.2249998E-04    4.9008584E-05
 -9.2199998E-04    5.5290060E-05
 -9.2149997E-04    5.8135643E-05
 -9.2100003E-04    5.7236251E-05
 -9.2050002E-04    5.2531253E-05
 -9.2000002E-04    4.4220484E-05
 -9.1950002E-04    3.2757838E-05
 -9.1900001E-04    1.8826415E-05
 -9.1850001E-04    3.2964574E-06
 -9.1800001E-04   -1.2831148E-05
 -9.1750000E-04   -2.8492093E-05
 -9.1700000E-04   -4.2631855E-05
 -9.1649999E-04   -5.4279604E-05
 -9.1599999E-04   -6.2617437E-05
 -9.1549999E-04   -6.7039757E-05
 -9.1499998E-04   -6.7198263E-05
 -9.1449998E-04   -6.3029060E-05
 -9.1399997E-04   -5.4759781E-05
 -9.1349997E-04   -4.2895819E-05
 -9.1300003E-04   -2.8186754E-05
 -9.1250002E-04   -1.1575196E-05
 -9.1200002E-04    5.8681671E-06
 -9.1150001E-04    2.3018578E-05
 -9.1100001E-04    3.8774750E-05
 -9.1050001E-04    5.2134230E-05
 -9.1000000E-04    6.2260988E-05
 -9.0950000E-04    6.8540299E-05
 -9.0899999E-04    7.0617010E-05
 -9.0849999E-04    6.8414527E-05
 -9.0799999E-04    6.2133542E-05
 -9.0749998E-04    5.2230920E-05
 -9.0699998E-04    3.9380920E-05
 -9.0649998E-04    2.4422148E-05
 -9.0599997E-04    8.2947327E-06
 -9.0550003E-04   -8.0270393E-06
 -9.0500002E-04   -2.3601260E-05
 -9.0450002E-04   -3.7578931E-05
 -9.0400001E-04   -4.9253958E-05
 -9.0350001E-04   -5.8099176E-05
 -9.0300001E-04   -6.3786312E-05
 -9.0250000E-04   -6.6189234E-05
 -9.0200000E-04   -6.5371409E-05
 -9.0150000E-04   -6.1559906E-05
 -9.0099999E-04   -5.5109358E-05
 -9.0049999E-04   -4.6460234E-05
 -8.9999998E-04   -3.6095989E-05
 -8.9949998E-04   -2.4503695E-05
 -8.9899998E-04   -1.2142074E-05
 -8.9849997E-04    5.8004230E-07
 -8.9800003E-04    1.3313121E-05
 -8.9750002E-04    2.5764020E-05
 -8.9700002E-04    3.7682083E-05
 -8.9650002E-04    4.8836937E-05
 -8.9600001E-04    5.8991976E-05
 -8.9550001E-04    6.7878085E-05
 -8.9500000E-04    7.5172553E-05
 -8.9450000E-04    8.0487771E-05
 -8.9400000E-04    8.3373459E-05
 -8.9349999E-04    8.3334882E-05
 -8.9299999E-04    7.9867612E-05
 -8.9249999E-04    7.2507682E-05
 -8.9199998E-04    6.0893704E-05
 -8.9149998E-04    4.4835710E-05
 -8.9099997E-04    2.4384059E-05
 -8.9050003E-04   -1.0942895E-07
 -8.9000002E-04   -2.7946109E-05
 -8.8950002E-04   -5.8058515E-05
 -8.8900002E-04   -8.9018082E-05
 -8.8850001E-04   -1.1907683E-04
 -8.8800001E-04   -1.4624468E-04
 -8.8750001E-04   -1.6840085E-04
 -8.8700000E-04   -1.8343459E-04
 -8.8650000E-04   -1.8940710E-04
 -8.8599999E-04   -1.8472367E-04
 -8.8549999E-04   -1.6830290E-04
 -8.8499999E-04   -1.3972861E-04
 -8.8449998E-04   -9.9369587E-05
 -8.8399998E-04   -4.8453712E-05
 -8.8349998E-04    1.0914911E-05
 -8.8299997E-04    7.5803619E-05
 -8.8250003E-04    1.4256706E-04
 -8.8200002E-04    2.0702969E-04
 -8.8150002E-04    2.6472736E-04
 -8.8100001E-04    3.1119573E-04
 -8.8050001E-04    3.4228808E-04
 -8.8000001E-04    3.5450092E-04
 -8.7950000E-04    3.4528397E-04
 -8.7900000E-04    3.1330972E-04
 -8.7850000E-04    2.5867860E-04
 -8.7799999E-04    1.8303950E-04
 -8.7749999E-04    8.9609006E-05
 -8.7699998E-04   -1.6920032E-05
 -8.7649998E-04   -1.3058304E-04
 -8.7599998E-04   -2.4445518E-04
 -8.7549997E-04   -3.5105570E-04
 -8.7500003E-04   -4.4282235E-04
 -8.7450002E-04   -5.1262742E-04
 -8.7400002E-04   -5.5430073E-04
 -8.7350002E-04   -5.6312297E-04
 -8.7300001E-04   -5.3625199E-04
 -8.7250001E-04   -4.7304679E-04
 -8.7200000E-04   -3.7525990E-04
 -8.7150000E-04   -2.4707595E-04
 -8.7100000E-04   -9.4983407E-05
 -8.7049999E-04    7.2521230E-05
 -8.6999999E-04    2.4538639E-04
 -8.6949999E-04    4.1259325E-04
 -8.6899998E-04    5.6284486E-04
 -8.6849998E-04    6.8531447E-04
 -8.6799997E-04    7.7040383E-04
 -8.6750003E-04    8.1045955E-04
 -8.6700002E-04    8.0039568E-04
 -8.6650002E-04    7.3817349E-04
 -8.6600002E-04    6.2509935E-04
 -8.6550001E-04    4.6590934E-04
 -8.6500001E-04    2.6862562E-04
 -8.6450001E-04    4.4182474E-05
 -8.6400000E-04   -1.9416289E-04
 -8.6350000E-04   -4.3160416E-04
 -8.6299999E-04   -6.5270020E-04
 -8.6249999E-04   -8.4237289E-04
 -8.6199999E-04   -9.8692498E-04
 -8.6149998E-04   -1.0750081E-03
 -8.6099998E-04   -1.0984747E-03
 -8.6049997E-04   -1.0530499E-03
 -8.5999997E-04   -9.3877071E-04
 -8.5950003E-04   -7.6015550E-04
 -8.5900002E-04   -5.2607956E-04
 -8.5850002E-04   -2.4935682E-04
 -8.5800001E-04    5.3956574E-05
 -8.5750001E-04    3.6549798E-04
 -8.5700001E-04    6.6571956E-04
 -8.5650000E-04    9.3512551E-04
 -8.5600000E-04    1.1555461E-03
 -8.5549999E-04    1.3113635E-03
 -8.5499999E-04    1.3906091E-03
 -8.5449999E-04    1.3858494E-03
 -8.5399998E-04    1.2948024E-03
 -8.5349998E-04    1.1206304E-03
 -8.5299998E-04    8.7188522E-04
 -8.5249997E-04    5.6209753E-04
 -8.5200003E-04    2.0903145E-04
 -8.5150002E-04   -1.6635536E-04
 -8.5100002E-04   -5.4118369E-04
 -8.5050002E-04   -8.9207792E-04
 -8.5000001E-04   -1.1966524E-03
 -8.4950001E-04   -1.4349641E-03
 -8.4900000E-04   -1.5908336E-03
 -8.4850000E-04   -1.6529467E-03
 -8.4800000E-04   -1.6156596E-03
 -8.4749999E-04   -1.4794518E-03
 -8.4699999E-04   -1.2509904E-03
 -8.4649998E-04   -9.4279909E-04
 -8.4599998E-04   -5.7254551E-04
 -8.4549998E-04   -1.6199202E-04
 -8.4499997E-04    2.6432640E-04
 -8.4450003E-04    6.8061356E-04
 -8.4400002E-04    1.0614160E-03
 -8.4350002E-04    1.3832165E-03
 -8.4300002E-04    1.6259139E-03
 -8.4250001E-04    1.7740935E-03
 -8.4200001E-04    1.8180073E-03
 -8.4150000E-04    1.7541978E-03
 -8.4100000E-04    1.5857292E-03
 -8.4050000E-04    1.3220094E-03
 -8.3999999E-04    9.7821653E-04
 -8.3949999E-04    5.7436811E-04
 -8.3899999E-04    1.3409514E-04
 -8.3849998E-04   -3.1680160E-04
 -8.3799998E-04   -7.5191661E-04
 -8.3749997E-04   -1.1458289E-03
 -8.3700003E-04   -1.4756139E-03
 -8.3650002E-04   -1.7221866E-03
 -8.3600002E-04   -1.8713921E-03
 -8.3550002E-04   -1.9147851E-03
 -8.3500001E-04   -1.8500524E-03
 -8.3450001E-04   -1.6810631E-03
 -8.3400001E-04   -1.4175525E-03
 -8.3350000E-04   -1.0744686E-03
 -8.3300000E-04   -6.7103049E-04
 -8.3249999E-04   -2.2956506E-04
 -8.3199999E-04    2.2580060E-04
 -8.3149999E-04    6.7050883E-04
 -8.3099998E-04    1.0809200E-03
 -8.3049998E-04    1.4355623E-03
 -8.2999998E-04    1.7162153E-03
 -8.2949997E-04    1.9087755E-03
 -8.2900003E-04    2.0038655E-03
 -8.2850002E-04    1.9971682E-03
 -8.2800002E-04    1.8894883E-03
 -8.2750001E-04    1.6865501E-03
 -8.2700001E-04    1.3985680E-03
 -8.2650001E-04    1.0396233E-03
 -8.2600000E-04    6.2689721E-04
 -8.2550000E-04    1.7980819E-04
 -8.2500000E-04   -2.8089902E-04
 -8.2449999E-04   -7.3406758E-04
 -8.2399999E-04   -1.1590086E-03
 -8.2349998E-04   -1.5363171E-03
 -8.2299998E-04   -1.8486034E-03
 -8.2249998E-04   -2.0811253E-03
 -8.2199997E-04   -2.2223154E-03
 -8.2150003E-04   -2.2642000E-03
 -8.2100002E-04   -2.2027115E-03
 -8.2050002E-04   -2.0378940E-03
 -8.2000002E-04   -1.7740011E-03
 -8.1950001E-04   -1.4194831E-03
 -8.1900001E-04   -9.8685559E-04
 -8.1850000E-04   -4.9243920E-04
 -8.1800000E-04    4.4039942E-05
 -8.1750000E-04    6.0000224E-04
 -8.1699999E-04    1.1507255E-03
 -8.1649999E-04    1.6702175E-03
 -8.1599999E-04    2.1322398E-03
 -8.1549998E-04    2.5114652E-03
 -8.1499998E-04    2.7847337E-03
 -8.1449997E-04    2.9323534E-03
 -8.1400003E-04    2.9393905E-03
 -8.1350002E-04    2.7968630E-03
 -8.1300002E-04    2.5027620E-03
 -8.1250002E-04    2.0628104E-03
 -8.1200001E-04    1.4908748E-03
 -8.1150001E-04    8.0896076E-04
 -8.1100001E-04    4.6735917E-05
 -8.1050000E-04   -7.5944926E-04
 -8.1000000E-04   -1.5680394E-03
 -8.0949999E-04   -2.3342173E-03
 -8.0899999E-04   -3.0122364E-03
 -8.0849999E-04   -3.5580383E-03
 -8.0799998E-04   -3.9320104E-03
 -8.0749998E-04   -4.1017248E-03
 -8.0699997E-04   -4.0444685E-03
 -8.0649997E-04   -3.7493922E-03
 -8.0600003E-04   -3.2190899E-03
 -8.0550002E-04   -2.4704584E-03
 -8.0500002E-04   -1.5347213E-03
 -8.0450001E-04   -4.5654143E-04
 -8.0400001E-04    7.0779544E-04
 -8.0350001E-04    1.8930758E-03
 -8.0300000E-04    3.0286259E-03
 -8.0250000E-04    4.0423786E-03
 -8.0200000E-04    4.8653181E-03
 -8.0149999E-04    5.4360284E-03
 -8.0099999E-04    5.7050586E-03
 -8.0049998E-04    5.6388038E-03
 -7.9999998E-04    5.2226032E-03
 -7.9949998E-04    4.4628107E-03
 -7.9899997E-04    3.3876298E-03
 -7.9850003E-04    2.0465837E-03
 -7.9800002E-04    5.0857069E-04
 -7.9750002E-04   -1.1414464E-03
 -7.9700002E-04   -2.8069764E-03
 -7.9650001E-04   -4.3855333E-03
 -7.9600001E-04   -5.7748500E-03
 -7.9550000E-04   -6.8794042E-03
 -7.9500000E-04   -7.6168394E-03
 -7.9450000E-04   -7.9238527E-03
 -7.9399999E-04   -7.7611268E-03
 -7.9349999E-04   -7.1169599E-03
 -7.9299998E-04   -6.0092593E-03
 -7.9249998E-04   -4.4857231E-03
 -7.9199998E-04   -2.6221003E-03
 -7.9149997E-04   -5.1857013E-04
 -7.9100003E-04    1.7056052E-03
 -7.9050002E-04    3.9188741E-03
 -7.9000002E-04    5.9852432E-03
 -7.8950002E-04    7.7727102E-03
 -7.8900001E-04    9.1617480E-03
 -7.8850001E-04    1.0053294E-02
 -7.8800000E-04    1.0375697E-02
 -7.8750000E-04    1.0090141E-02
 -7.8700000E-04    9.1941403E-03
 -7.8649999E-04    7.7228229E-03
 -7.8599999E-04    5.7478352E-03
 -7.8549999E-04    3.3738993E-03
 -7.8499998E-04    7.3315768E-04
 -7.8449998E-04   -2.0223767E-03
 -7.8399997E-04   -4.7298237E-03
 -7.8350003E-04   -7.2253430E-03
 -7.8300002E-04   -9.3543278E-03
 -7.8250002E-04   -1.0981232E-02
 -7.8200002E-04   -1.1998375E-02
 -7.8150001E-04   -1.2333160E-02
 -7.8100001E-04   -1.1953191E-02
 -7.8050001E-04   -1.0868920E-02
 -7.8000000E-04   -9.1336379E-03
 -7.7950000E-04   -6.8407436E-03
 -7.7899999E-04   -4.1184505E-03
 -7.7849999E-04   -1.1222279E-03
 -7.7799999E-04    1.9745566E-03
 -7.7749998E-04    4.9912105E-03
 -7.7699998E-04    7.7508357E-03
 -7.7649998E-04    1.0091287E-02
 -7.7599997E-04    1.1875264E-02
 -7.7550003E-04    1.2998885E-02
 -7.7500002E-04    1.3398178E-02
 -7.7450002E-04    1.3053103E-02
 -7.7400001E-04    1.1988792E-02
 -7.7350001E-04    1.0273968E-02
 -7.7300001E-04    8.0166487E-03
 -7.7250000E-04    5.3573819E-03
 -7.7200000E-04    2.4605016E-03
 -7.7150000E-04   -4.9606257E-04
 -7.7099999E-04   -3.3317416E-03
 -7.7049999E-04   -5.8743507E-03
 -7.6999998E-04   -7.9704747E-03
 -7.6949998E-04   -9.4945654E-03
 -7.6899998E-04   -1.0356178E-02
 -7.6849997E-04   -1.0504919E-02
 -7.6800003E-04   -9.9328337E-03
 -7.6750002E-04   -8.6741066E-03
 -7.6700002E-04   -6.8021645E-03
 -7.6650002E-04   -4.4244118E-03
 -7.6600001E-04   -1.6749832E-03
 -7.6550001E-04    1.2939678E-03
 -7.6500000E-04    4.3218643E-03
 -7.6450000E-04    7.2495406E-03
 -7.6400000E-04    9.9286977E-03
 -7.6349999E-04    1.2230368E-02
 -7.6299999E-04    1.4051919E-02
 -7.6249999E-04    1.5322167E-02
 -7.6199998E-04    1.6004382E-02
 -7.6149998E-04    1.6097048E-02
 -7.6099997E-04    1.5632458E-02
 -7.6050003E-04    1.4673308E-02
 -7.6000002E-04    1.3307610E-02
 -7.5950002E-04    1.1642340E-02
 -7.5900002E-04    9.7962888E-03
 -7.5850001E-04    7.8926077E-03
 -7.5800001E-04    6.0515553E-03
 -7.5750001E-04    4.3838890E-03
 -7.5700000E-04    2.9852726E-03
 -7.5650000E-04    1.9319913E-03
 -7.5599999E-04    1.2781391E-03
 -7.5549999E-04    1.0543413E-03
 -7.5499999E-04    1.2679580E-03
 -7.5449998E-04    1.9046142E-03
 -7.5399998E-04    2.9308253E-03
 -7.5349997E-04    4.2974283E-03
 -7.5299997E-04    5.9434990E-03
 -7.5250003E-04    7.8004375E-03
 -7.5200002E-04    9.7959284E-03
 -7.5150002E-04    1.1857528E-02
 -7.5100001E-04    1.3915690E-02
 -7.5050001E-04    1.5906136E-02
 -7.5000001E-04    1.7771525E-02
 -7.4950000E-04    1.9462470E-02
 -7.4900000E-04    2.0937998E-02
 -7.4850000E-04    2.2165611E-02
 -7.4799999E-04    2.3121098E-02
 -7.4749999E-04    2.3788271E-02
 -7.4699998E-04    2.4158796E-02
 -7.4649998E-04    2.4232183E-02
 -7.4599998E-04    2.4016032E-02