 -1.2000001E-03    1.0000000E-24
 -1.1995001E-03    1.0000000E-24
 -1.1990000E-03    1.0000000E-24
 -1.1985000E-03    1.0000000E-24
 -1.1980000E-03    1.0000000E-24
 -1.1975000E-03    1.0000000E-24
 -1.1970000E-03    1.0000000E-24
 -1.1965000E-03    1.0000000E-24
 -1.1960000E-03    1.0000001E-24
 -1.1955000E-03    1.0000001E-24
 -1.1950000E-03    1.0000001E-24
 -1.1945000E-03    1.0000001E-24
 -1.1940000E-03    1.0000001E-24
 -1.1935000E-03    1.0000001E-24
 -1.1930000E-03    1.0000001E-24
 -1.1925000E-03    1.0000001E-24
 -1.1920000E-03    1.0000001E-24
 -1.1915000E-03    1.0000001E-24
 -1.1910000E-03    1.0000001E-24
 -1.1905000E-03    1.0000001E-24
 -1.1900000E-03    1.0000001E-24
 -1.1895000E-03    1.0000001E-24
 -1.1890000E-03    1.0000001E-24
 -1.1885000E-03    1.0000001E-24
 -1.1880000E-03    1.0000001E-24
 -1.1875000E-03    1.0000001E-24
 -1.1870000E-03    1.0000002E-24
 -1.1865000E-03    1.0000002E-24
 -1.1860000E-03    1.0000002E-24
 -1.1854999E-03    1.0000002E-24
 -1.1849999E-03    1.0000002E-24
 -1.1845001E-03    1.0000002E-24
 -1.1840001E-03    1.0000002E-24
 -1.1835000E-03    1.0000002E-24
 -1.1830000E-03    1.0000002E-24
 -1.1825000E-03    1.0000002E-24
 -1.1820000E-03    1.0000002E-24
 -1.1815000E-03    1.0000001E-24
 -1.1810000E-03    1.0000001E-24
 -1.1805000E-03    1.0000001E-24
 -1.1800000E-03    1.0000001E-24
 -1.1795000E-03    1.0000001E-24
 -1.1790000E-03    1.0000001E-24
 -1.1785000E-03    1.0000001E-24
 -1.1780000E-03    1.0000001E-24
 -1.1775000E-03    1.0000001E-24
 -1.1770000E-03    1.0000001E-24
 -1.1765000E-03    1.0000001E-24
 -1.1760000E-03    1.0000001E-24
 -1.1755000E-03    1.0000001E-24
 -1.1750000E-03    1.0000001E-24
 -1.1745000E-03    1.0000001E-24
 -1.1740000E-03    1.0000001E-24
 -1.1735000E-03    1.0000001E-24
 -1.1730000E-03    1.0000001E-24
 -1.1725000E-03    1.0000001E-24
 -1.1720000E-03    1.0000001E-24
 -1.1715000E-03    1.0000001E-24
 -1.1710000E-03    1.0000001E-24
 -1.1704999E-03    1.0000001E-24
 -1.1699999E-03    1.0000001E-24
 -1.1695001E-03    1.0000001E-24
 -1.1690001E-03    1.0000001E-24
 -1.1685000E-03    1.0000001E-24
 -1.1680000E-03    1.0000001E-24
 -1.1675000E-03    1.0000001E-24
 -1.1670000E-03    1.0000001E-24
 -1.1665000E-03    1.0000001E-24
 -1.1660000E-03    1.0000001E-24
 -1.1655000E-03    1.0000001E-24
 -1.1650000E-03    1.0000001E-24
 -1.1645000E-03    1.0000001E-24
 -1.1640000E-03    1.0000001E-24
 -1.1635000E-03    1.0000001E-24
 -1.1630000E-03    1.0000001E-24
 -1.1625000E-03    1.0000001E-24
 -1.1620000E-03    1.0000001E-24
 -1.1615000E-03    1.0000001E-24
 -1.1610000E-03    1.0000002E-24
 -1.1605000E-03    1.0000003E-24
 -1.1600000E-03    1.0000003E-24
 -1.1595000E-03    1.0000003E-24
 -1.1590000E-03    1.0000003E-24
 -1.1585000E-03    1.0000003E-24
 -1.1580000E-03    1.0000003E-24
 -1.1575000E-03    1.0000003E-24
 -1.1570000E-03    1.0000003E-24
 -1.1565000E-03    1.0000003E-24
 -1.1560000E-03    1.0000003E-24
 -1.1555000E-03    1.0000003E-24
 -1.1549999E-03    1.0000003E-24
 -1.1544999E-03    1.0000003E-24
 -1.1540001E-03    1.0000003E-24
 -1.1535001E-03    1.0000003E-24
 -1.1530000E-03    1.0000002E-24
 -1.1525000E-03    1.0000001E-24
 -1.1520000E-03    1.0000000E-24
 -1.1515000E-03    1.0000000E-24
 -1.1510000E-03    1.0000000E-24
 -1.1505000E-03    1.0000000E-24
 -1.1500000E-03    1.0000000E-24
 -1.1495000E-03    1.0000000E-24
 -1.1490000E-03    1.0000000E-24
 -1.1485000E-03    1.0000000E-24
 -1.1480000E-03    1.0000000E-24
 -1.1475000E-03    1.0000000E-24
 -1.1470000E-03    1.0000000E-24
 -1.1465000E-03    1.0000000E-24
 -1.1460000E-03    1.0000000E-24
 -1.1455000E-03    1.0000000E-24
 -1.1450000E-03    1.0000000E-24
 -1.1445000E-03    1.0000000E-24
 -1.1440000E-03    1.0000000E-24
 -1.1435000E-03    1.0000000E-24
 -1.1430000E-03    1.0000000E-24
 -1.1425000E-03    1.0000000E-24
 -1.1420000E-03    1.0000000E-24
 -1.1415000E-03    1.0000001E-24
 -1.1410000E-03    1.0000002E-24
 -1.1405000E-03    1.0000003E-24
 -1.1399999E-03    1.0000004E-24
 -1.1394999E-03    1.0000005E-24
 -1.1390001E-03    1.0000006E-24
 -1.1385001E-03    1.0000006E-24
 -1.1380001E-03    1.0000006E-24
 -1.1375000E-03    1.0000006E-24
 -1.1370000E-03    1.0000006E-24
 -1.1365000E-03    1.0000005E-24
 -1.1360000E-03    1.0000004E-24
 -1.1355000E-03    1.0000003E-24
 -1.1350000E-03    1.0000002E-24
 -1.1345000E-03    1.0000001E-24
 -1.1340000E-03    1.0000000E-24
 -1.1335000E-03    1.0000000E-24
 -1.1330000E-03    1.0000000E-24
 -1.1325000E-03    1.0000000E-24
 -1.1320000E-03    1.0000000E-24
 -1.1315000E-03    1.0000000E-24
 -1.1310000E-03    1.0000000E-24
 -1.1305000E-03    1.0000000E-24
 -1.1300000E-03    9.9999992E-25
 -1.1295000E-03    9.9999982E-25
 -1.1290000E-03    9.9999972E-25
 -1.1285000E-03    9.9999972E-25
 -1.1280000E-03    9.9999972E-25
 -1.1275000E-03    9.9999972E-25
 -1.1270000E-03    9.9999972E-25
 -1.1265000E-03    9.9999972E-25
 -1.1260000E-03    9.9999972E-25
 -1.1255000E-03    9.9999972E-25
 -1.1250000E-03    9.9999972E-25
 -1.1244999E-03    9.9999972E-25
 -1.1239999E-03    9.9999972E-25
 -1.1235001E-03    9.9999963E-25
 -1.1230001E-03    9.9999953E-25
 -1.1225000E-03    9.9999953E-25
 -1.1220000E-03    9.9999943E-25
 -1.1215000E-03    9.9999943E-25
 -1.1210000E-03    9.9999933E-25
 -1.1205000E-03    9.9999943E-25
 -1.1200000E-03    9.9999972E-25
 -1.1195000E-03    1.0000004E-24
 -1.1190000E-03    1.0000005E-24
 -1.1185000E-03    1.0000001E-24
 -1.1180000E-03    1.0000005E-24
 -1.1175000E-03    1.0000007E-24
 -1.1170000E-03    1.0000010E-24
 -1.1165000E-03    1.0000014E-24
 -1.1160000E-03    9.9999982E-25
 -1.1155000E-03    9.9999529E-25
 -1.1150000E-03    9.9998898E-25
 -1.1145000E-03    9.9997813E-25
 -1.1140000E-03    9.9997152E-25
 -1.1135000E-03    9.9997576E-25
 -1.1130000E-03    9.9998365E-25
 -1.1125000E-03    1.0000045E-24
 -1.1120000E-03    1.0000349E-24
 -1.1115000E-03    1.0000564E-24
 -1.1110000E-03    1.0000751E-24
 -1.1105000E-03    1.0001003E-24
 -1.1100000E-03    1.0001364E-24
 -1.1094999E-03    1.0001828E-24
 -1.1089999E-03    1.0002283E-24
 -1.1084999E-03    1.0002277E-24
 -1.1080001E-03    1.0001612E-24
 -1.1075001E-03    1.0000741E-24
 -1.1070000E-03    1.0000056E-24
 -1.1065000E-03    9.9993819E-25
 -1.1060000E-03    9.9991315E-25
 -1.1055000E-03    9.9988573E-25
 -1.1050000E-03    9.9973684E-25
 -1.1045000E-03    9.9954465E-25
 -1.1040000E-03    9.9932988E-25
 -1.1035000E-03    9.9913770E-25
 -1.1030000E-03    9.9905092E-25
 -1.1025000E-03    9.9889640E-25
 -1.1020000E-03    9.9876447E-25
 -1.1015000E-03    9.9892618E-25
 -1.1010000E-03    9.9911048E-25
 -1.1005000E-03    9.9912162E-25
 -1.1000000E-03    9.9887678E-25
 -1.0995000E-03    9.9933964E-25
 -1.0990000E-03    9.9903031E-25
 -1.0985000E-03    9.9861557E-25
 -1.0980000E-03    9.9740279E-25
 -1.0975000E-03    9.9591895E-25
 -1.0970000E-03    9.9452542E-25
 -1.0965000E-03    9.9328247E-25
 -1.0960000E-03    9.9300332E-25
 -1.0955000E-03    9.9163987E-25
 -1.0950000E-03    9.9286655E-25
 -1.0945000E-03    9.9144295E-25
 -1.0939999E-03    9.8610414E-25
 -1.0934999E-03    9.7877759E-25
 -1.0930001E-03    9.7078850E-25
 -1.0925001E-03    9.6953046E-25
 -1.0920000E-03    9.7544022E-25
 -1.0915000E-03    9.8508443E-25
 -1.0910000E-03    1.0024386E-24
 -1.0905000E-03    1.0248523E-24
 -1.0900000E-03    1.0549759E-24
 -1.0895000E-03    1.0841358E-24
 -1.0890000E-03    1.1149822E-24
 -1.0885000E-03    1.1458286E-24
 -1.0880000E-03    1.1680015E-24
 -1.0875000E-03    1.1766820E-24
 -1.0870000E-03    1.1693405E-24
 -1.0865000E-03    1.1335386E-24
 -1.0860000E-03    1.0827988E-24
 -1.0855000E-03    9.9471426E-25
 -1.0850000E-03    8.8976440E-25
 -1.0845000E-03    7.7903209E-25
 -1.0840000E-03    6.6444487E-25
 -1.0835000E-03    5.8358835E-25
 -1.0830000E-03    4.7285605E-25
 -1.0825000E-03    4.4596871E-25
 -1.0820000E-03    4.5184838E-25
 -1.0815000E-03    4.8664011E-25
 -1.0810000E-03    6.2358774E-25
 -1.0805000E-03    8.2004606E-25
 -1.0800000E-03    1.0366223E-24
 -1.0795000E-03    1.2522348E-24
 -1.0790000E-03    1.3888211E-24
 -1.0784999E-03    1.4618008E-24
 -1.0779999E-03    1.4653916E-24
 -1.0775001E-03    1.3224945E-24
 -1.0770001E-03    1.1024988E-24
 -1.0765000E-03    7.3601521E-25
 -1.0760000E-03    2.5773831E-25
 -1.0755000E-03   -2.6294292E-25
 -1.0750000E-03   -8.7228778E-25
 -1.0745000E-03   -1.4218811E-24
 -1.0740000E-03   -2.0090599E-24
 -1.0735000E-03   -2.5750366E-24
 -1.0730000E-03   -3.1063189E-24
 -1.0725000E-03   -3.4371443E-24
 -1.0720000E-03   -3.6754509E-24
 -1.0715000E-03   -3.7595600E-24
 -1.0710000E-03   -4.0132865E-24
 -1.0705000E-03   -3.8506794E-24
 -1.0700000E-03   -3.7343314E-24
 -1.0695000E-03   -3.2633290E-24
 -1.0690000E-03   -1.9827891E-24
 -1.0685000E-03   -7.0038818E-26
 -1.0680000E-03    1.8427114E-24
 -1.0675000E-03    4.0619296E-24
 -1.0670000E-03    5.4176411E-24
 -1.0665000E-03    5.8635865E-24
 -1.0660000E-03    6.2015937E-24
 -1.0655000E-03    5.6760940E-24
 -1.0650000E-03    5.3664712E-24
 -1.0645000E-03    6.0745528E-24
 -1.0640000E-03    6.2275228E-24
 -1.0634999E-03    6.7814065E-24
 -1.0629999E-03    8.2296368E-24
 -1.0625001E-03    9.4311508E-24
 -1.0620001E-03    9.0906879E-24
 -1.0615001E-03    8.3377462E-24
 -1.0610000E-03    9.6047941E-24
 -1.0605000E-03    9.4532231E-24
 -1.0600000E-03    7.7596760E-24
 -1.0595000E-03    5.6960546E-24
 -1.0590000E-03    1.1652706E-24
 -1.0585000E-03   -6.8195408E-24
 -1.0580000E-03   -1.8135021E-23
 -1.0575000E-03   -2.8833712E-23
 -1.0570000E-03   -3.8545536E-23
 -1.0565000E-03   -4.5543483E-23
 -1.0560000E-03   -5.0320983E-23
 -1.0555000E-03   -5.0811790E-23
 -1.0550000E-03   -4.9822300E-23
 -1.0545000E-03   -4.8586091E-23
 -1.0540000E-03   -4.3649141E-23
 -1.0535000E-03   -3.7355252E-23
 -1.0530000E-03   -2.5016815E-23
 -1.0525000E-03   -1.0827163E-24
 -1.0520000E-03    3.7654357E-23
 -1.0515000E-03    7.1210386E-23
 -1.0510000E-03    9.6131347E-23
 -1.0505000E-03    1.1143038E-22
 -1.0500000E-03    1.2167172E-22
 -1.0495000E-03    1.2525174E-22
 -1.0490000E-03    1.3358104E-22
 -1.0485000E-03    1.3154825E-22
 -1.0479999E-03    1.2408771E-22
 -1.0474999E-03    1.0577166E-22
 -1.0470001E-03    7.8080380E-23
 -1.0465001E-03    4.3974486E-23
 -1.0460000E-03    1.5296347E-23
 -1.0455000E-03   -2.4237306E-23
 -1.0450000E-03   -1.1064704E-22
 -1.0445000E-03   -2.0692544E-22
 -1.0440000E-03   -3.3132948E-22
 -1.0435000E-03   -4.4981238E-22
 -1.0430000E-03   -5.6101713E-22
 -1.0425000E-03   -6.1893113E-22
 -1.0420000E-03   -6.4921294E-22
 -1.0415000E-03   -6.1140108E-22
 -1.0410000E-03   -4.9760064E-22
 -1.0405000E-03   -3.1077217E-22
 -1.0400000E-03   -1.5157592E-22
 -1.0395000E-03    4.3147448E-23
 -1.0390000E-03    2.4773946E-22
 -1.0385000E-03    4.9476669E-22
 -1.0380000E-03    7.4870195E-22
 -1.0375000E-03    9.8141961E-22
 -1.0370000E-03    1.2020481E-21
 -1.0365000E-03    1.3348457E-21
 -1.0360000E-03    1.4696170E-21
 -1.0355000E-03    1.5688611E-21
 -1.0350000E-03    1.4667849E-21
 -1.0345000E-03    1.1989153E-21
 -1.0340000E-03    9.7446773E-22
 -1.0335000E-03    7.8554734E-22
 -1.0329999E-03    4.6636078E-22
 -1.0324999E-03   -2.6514006E-23
 -1.0319999E-03   -7.7005244E-22
 -1.0315001E-03   -1.7084967E-21
 -1.0310001E-03   -2.8719460E-21
 -1.0305000E-03   -3.8735495E-21
 -1.0300000E-03   -5.0330515E-21
 -1.0295000E-03   -6.7767773E-21
 -1.0290000E-03   -8.3468154E-21
 -1.0285000E-03   -9.6326362E-21
 -1.0280000E-03   -1.0160545E-20
 -1.0275000E-03   -1.0041070E-20
 -1.0270000E-03   -8.9426254E-21
 -1.0265000E-03   -6.5809936E-21
 -1.0260000E-03   -3.7259297E-21
 -1.0255000E-03   -3.2414252E-22
 -1.0250000E-03    2.9671158E-21
 -1.0245000E-03    6.0688961E-21
 -1.0240000E-03    9.3285746E-21
 -1.0235000E-03    1.2177717E-20
 -1.0230000E-03    1.2879443E-20
 -1.0225000E-03    1.3454850E-20
 -1.0220000E-03    1.2893388E-20
 -1.0215000E-03    8.1634083E-21
 -1.0210000E-03    1.7912859E-21
 -1.0205000E-03   -8.1809197E-21
 -1.0200000E-03   -2.1911106E-20
 -1.0195000E-03   -3.6541314E-20
 -1.0190000E-03   -5.5592676E-20
 -1.0185000E-03   -7.1928182E-20
 -1.0180000E-03   -8.6495226E-20
 -1.0174999E-03   -9.8914852E-20
 -1.0169999E-03   -1.0261849E-19
 -1.0165001E-03   -9.9500916E-20
 -1.0160001E-03   -9.0572684E-20
 -1.0155000E-03   -7.4065326E-20
 -1.0150000E-03   -5.2252586E-20
 -1.0145000E-03   -2.5008142E-20
 -1.0140000E-03    6.3732360E-21
 -1.0135000E-03    5.2154949E-20
 -1.0130000E-03    9.7684020E-20
 -1.0125000E-03    1.3866561E-19
 -1.0120000E-03    1.6398368E-19
 -1.0115000E-03    1.8121736E-19
 -1.0110000E-03    1.7621894E-19
 -1.0105000E-03    1.4747260E-19
 -1.0100000E-03    9.4473080E-20
 -1.0095000E-03    1.7220362E-20
 -1.0090000E-03   -7.7211701E-20
 -1.0085000E-03   -1.8351772E-19
 -1.0080000E-03   -2.8502364E-19
 -1.0075000E-03   -3.8349789E-19
 -1.0070000E-03   -4.3397105E-19
 -1.0065000E-03   -4.6069628E-19
 -1.0060000E-03   -4.6518942E-19
 -1.0055000E-03   -4.2420782E-19
 -1.0050000E-03   -3.3471982E-19
 -1.0045000E-03   -1.8864107E-19
 -1.0040000E-03   -3.4477922E-20
 -1.0035000E-03    1.5000172E-19
 -1.0030000E-03    3.7187171E-19
 -1.0025000E-03    5.9778389E-19
 -1.0019999E-03    8.2445397E-19
 -1.0014999E-03    1.0273761E-18
 -1.0010001E-03    1.1262117E-18
 -1.0005001E-03    1.1745197E-18
 -1.0000000E-03    1.1480472E-18
 -9.9950004E-04    9.5584442E-19
 -9.9900004E-04    6.9896648E-19
 -9.9850004E-04    3.8145561E-19
 -9.9800003E-04   -1.2857049E-20
 -9.9750003E-04   -4.2333853E-19
 -9.9700002E-04   -8.1360906E-19
 -9.9650002E-04   -1.0846347E-18
 -9.9600002E-04   -1.3364598E-18
 -9.9550001E-04   -1.3841539E-18
 -9.9500001E-04   -1.1731472E-18
 -9.9450001E-04   -8.0449487E-19
 -9.9400000E-04   -3.6308292E-19
 -9.9350000E-04    2.8043894E-19
 -9.9299999E-04    1.1260707E-18
 -9.9249999E-04    2.0848839E-18
 -9.9199999E-04    3.2619760E-18
 -9.9149998E-04    4.4390681E-18
 -9.9099998E-04    5.4544720E-18
 -9.9049998E-04    5.9767278E-18
 -9.8999997E-04    5.8380840E-18
 -9.8949997E-04    5.3214948E-18
 -9.8899996E-04    4.4006861E-18
 -9.8849996E-04    3.1160791E-18
 -9.8799996E-04    1.3302394E-18
 -9.8749995E-04   -3.9092514E-19
 -9.8699995E-04   -2.1120895E-18
 -9.8649994E-04   -3.6068909E-18
 -9.8600006E-04   -4.5681219E-18
 -9.8550005E-04   -5.5616907E-18
 -9.8500005E-04   -6.0540270E-18
 -9.8450005E-04   -6.4655191E-18
 -9.8400004E-04   -6.4202430E-18
 -9.8350004E-04   -5.6069487E-18
 -9.8300003E-04   -3.4031383E-18
 -9.8250003E-04   -4.5556352E-19
 -9.8200003E-04    2.5566864E-18
 -9.8150002E-04    5.3749108E-18
 -9.8100002E-04    7.8050844E-18
 -9.8050002E-04    9.3621427E-18
 -9.8000001E-04    1.0725176E-17
 -9.7950001E-04    1.1118081E-17
 -9.7900000E-04    1.0767221E-17
 -9.7850000E-04    9.5917539E-18
 -9.7800000E-04    7.4219053E-18
 -9.7749999E-04    5.0903690E-18
 -9.7699999E-04    2.2090936E-18
 -9.7649998E-04   -1.2219209E-18
 -9.7599998E-04   -4.2002089E-18
 -9.7549998E-04   -8.5366760E-18
 -9.7499997E-04   -1.3907945E-17
 -9.7450003E-04   -2.0572718E-17
 -9.7400002E-04   -2.6008663E-17
 -9.7350002E-04   -3.2932135E-17
 -9.7300002E-04   -3.9144182E-17
 -9.7250001E-04   -4.3383635E-17
 -9.7200001E-04   -4.5626244E-17
 -9.7150001E-04   -4.4020679E-17
 -9.7100000E-04   -3.7370452E-17
 -9.7050000E-04   -2.7486464E-17
 -9.6999999E-04   -1.3333913E-17
 -9.6949999E-04    4.4404461E-18
 -9.6899999E-04    2.4672462E-17
 -9.6849998E-04    4.4257723E-17
 -9.6799998E-04    6.1385331E-17
 -9.6749997E-04    7.5408531E-17
 -9.6700003E-04    8.2834859E-17
 -9.6650003E-04    8.2176787E-17
 -9.6600002E-04    7.0475431E-17
 -9.6550002E-04    4.7423581E-17
 -9.6500001E-04    1.3570977E-17
 -9.6450001E-04   -2.5584991E-17
 -9.6400001E-04   -6.5775761E-17
 -9.6350000E-04   -1.0803614E-16
 -9.6300000E-04   -1.5003782E-16
 -9.6249999E-04   -1.8919378E-16
 -9.6199999E-04   -2.2705623E-16
 -9.6149999E-04   -2.5275977E-16
 -9.6099998E-04   -2.6319995E-16
 -9.6049998E-04   -2.5773005E-16
 -9.5999998E-04   -2.3078800E-16
 -9.5949997E-04   -1.8237376E-16
 -9.5900003E-04   -1.2102450E-16
 -9.5850002E-04   -4.0531387E-17
 -9.5800002E-04    4.7464040E-17
 -9.5750001E-04    1.3468337E-16
 -9.5700001E-04    2.2035050E-16
 -9.5650001E-04    2.9515218E-16
 -9.5600000E-04    3.4641210E-16
 -9.5550000E-04    3.7956298E-16
 -9.5500000E-04    3.8115239E-16
 -9.5449999E-04    3.5118028E-16
 -9.5399999E-04    2.8343787E-16
 -9.5349998E-04    1.8374593E-16
 -9.5299998E-04    5.8183924E-17
 -9.5249998E-04   -6.1945372E-17
 -9.5199997E-04   -1.9138789E-16
 -9.5150003E-04   -3.1410417E-16
 -9.5100002E-04   -4.1974620E-16
 -9.5050002E-04   -4.9434415E-16
 -9.5000002E-04   -5.4410686E-16
 -9.4950001E-04   -5.5920363E-16
 -9.4900001E-04   -5.4325633E-16
 -9.4850000E-04   -4.7660368E-16
 -9.4800000E-04   -3.5588261E-16
 -9.4750000E-04   -1.7203856E-16
 -9.4699999E-04    6.8719651E-17
 -9.4649999E-04    3.5811359E-16
 -9.4599999E-04    6.7906907E-16
 -9.4549998E-04    1.0165814E-15
 -9.4499998E-04    1.3349499E-15
 -9.4449997E-04    1.6326222E-15
 -9.4400003E-04    1.8578583E-15
 -9.4350002E-04    1.9811664E-15
 -9.4300002E-04    1.9947855E-15
 -9.4250002E-04    1.8764672E-15
 -9.4200001E-04    1.6086200E-15
 -9.4150001E-04    1.1746868E-15
 -9.4100001E-04    6.1217940E-16
 -9.4050000E-04   -2.6838715E-17
 -9.4000000E-04   -7.4424317E-16
 -9.3949999E-04   -1.4784632E-15
 -9.3899999E-04   -2.1831912E-15
 -9.3849999E-04   -2.7937523E-15
 -9.3799998E-04   -3.2765153E-15
 -9.3749998E-04   -3.5523177E-15
 -9.3699998E-04   -3.6025332E-15
 -9.3649997E-04   -3.4012915E-15
 -9.3600003E-04   -2.9392795E-15
 -9.3550002E-04   -2.2206364E-15
 -9.3500002E-04   -1.2939979E-15
 -9.3450001E-04   -1.8368195E-16
 -9.3400001E-04    1.0063139E-15
 -9.3350001E-04    2.1712159E-15
 -9.3300000E-04    3.2749352E-15
 -9.3250000E-04    4.2418021E-15
 -9.3200000E-04    4.9944646E-15
 -9.3149999E-04    5.4315120E-15
 -9.3099999E-04    5.5281093E-15
 -9.3049998E-04    5.2087160E-15
 -9.2999998E-04    4.4919584E-15
 -9.2949998E-04    3.4419944E-15
 -9.2899997E-04    2.0608934E-15
 -9.2850003E-04    4.3764858E-16
 -9.2800002E-04   -1.3097726E-15
 -9.2750002E-04   -3.0323585E-15
 -9.2700002E-04   -4.6597425E-15
 -9.2650001E-04   -6.0501564E-15
 -9.2600001E-04   -7.2056703E-15
 -9.2550000E-04   -7.9405366E-15
 -9.2500000E-04   -8.2532036E-15
 -9.2450000E-04   -8.0422602E-15
 -9.2399999E-04   -7.3967000E-15
 -9.2349999E-04   -6.2585731E-15
 -9.2299999E-04   -4.6071846E-15
 -9.2249998E-04   -2.6205198E-15
 -9.2199998E-04   -2.7788271E-16
 -9.2149997E-04    2.1640953E-15
 -9.2100003E-04    4.5150104E-15
 -9.2050002E-04    6.7003576E-15
 -9.2000002E-04    8.6953006E-15
 -9.1950002E-04    1.0167280E-14
 -9.1900001E-04    1.1005961E-14
 -9.1850001E-04    1.1004381E-14
 -9.1800001E-04    1.0059061E-14
 -9.1750000E-04    8.3355691E-15
 -9.1700000E-04    5.8587410E-15
 -9.1649999E-04    2.6782470E-15
 -9.1599999E-04   -1.0320660E-15
 -9.1549999E-04   -5.1480215E-15
 -9.1499998E-04   -9.0652956E-15
 -9.1449998E-04   -1.2676268E-14
 -9.1399997E-04   -1.5802953E-14
 -9.1349997E-04   -1.7960028E-14
 -9.1300003E-04   -1.8846364E-14
 -9.1250002E-04   -1.8615114E-14
 -9.1200002E-04   -1.7142100E-14
 -9.1150001E-04   -1.4013401E-14
 -9.1100001E-04   -9.8416216E-15
 -9.1050001E-04   -4.5770899E-15
 -9.1000000E-04    1.5815113E-15
 -9.0950000E-04    8.3527156E-15
 -9.0899999E-04    1.5107363E-14
 -9.0849999E-04    2.1547431E-14
 -9.0799999E-04    2.7143100E-14
 -9.0749998E-04    3.1517700E-14
 -9.0699998E-04    3.4501526E-14
 -9.0649998E-04    3.5026659E-14
 -9.0599997E-04    3.3333176E-14
 -9.0550003E-04    2.9387961E-14
 -9.0500002E-04    2.3290357E-14
 -9.0450002E-04    1.5139704E-14
 -9.0400001E-04    5.4989345E-15
 -9.0350001E-04   -5.5988370E-15
 -9.0300001E-04   -1.7723133E-14
 -9.0250000E-04   -2.9847429E-14
 -9.0200000E-04   -4.1160441E-14
 -9.0150000E-04   -5.0975059E-14
 -9.0099999E-04   -5.8720071E-14
 -9.0049999E-04   -6.3037818E-14
 -8.9999998E-04   -6.2487850E-14
 -8.9949998E-04   -5.7500649E-14
 -8.9899998E-04   -4.7314596E-14
 -8.9849997E-04   -3.2426400E-14
 -8.9800003E-04   -1.4293061E-14
 -8.9750002E-04    7.0191926E-15
 -8.9700002E-04    2.9854676E-14
 -8.9650002E-04    5.2458363E-14
 -8.9600001E-04    7.3240798E-14
 -8.9550001E-04    9.0794647E-14
 -8.9500000E-04    1.0326554E-13
 -8.9450000E-04    1.0946139E-13
 -8.9400000E-04    1.0767684E-13
 -8.9349999E-04    9.8209919E-14
 -8.9299999E-04    8.2120258E-14
 -8.9249999E-04    6.0268813E-14
 -8.9199998E-04    3.4046361E-14
 -8.9149998E-04    5.1748157E-15
 -8.9099997E-04   -2.4623915E-14
 -8.9050003E-04   -5.4356422E-14
 -8.9000002E-04   -8.1704737E-14
 -8.8950002E-04   -1.0474828E-13
 -8.8900002E-04   -1.2225640E-13
 -8.8850001E-04   -1.3274441E-13
 -8.8800001E-04   -1.3422550E-13
 -8.8750001E-04   -1.2484531E-13
 -8.8700000E-04   -1.0672310E-13
 -8.8650000E-04   -7.9858876E-14
 -8.8599999E-04   -4.5378503E-14
 -8.8549999E-04   -6.4608929E-15
 -8.8499999E-04    3.5966767E-14
 -8.8449998E-04    7.9917660E-14
 -8.8399998E-04    1.2108701E-13
 -8.8349998E-04    1.5639523E-13
 -8.8299997E-04    1.8312701E-13
 -8.8250003E-04    1.9884848E-13
 -8.8200002E-04    2.0195363E-13
 -8.8150002E-04    1.9313786E-13
 -8.8100001E-04    1.6822883E-13
 -8.8050001E-04    1.2682918E-13
 -8.8000001E-04    6.9203839E-14
 -8.7950000E-04   -4.3160801E-15
 -8.7900000E-04   -8.5253466E-14
 -8.7850000E-04   -1.6817767E-13
 -8.7799999E-04   -2.4977733E-13
 -8.7749999E-04   -3.2323103E-13
 -8.7699998E-04   -3.8290942E-13
 -8.7649998E-04   -4.2450773E-13
 -8.7599998E-04   -4.4319138E-13
 -8.7549997E-04   -4.3084750E-13
 -8.7500003E-04   -3.9062189E-13
 -8.7450002E-04   -3.2244834E-13
 -8.7400002E-04   -2.2493604E-13
 -8.7350002E-04   -1.1007216E-13
 -8.7300001E-04    2.1083639E-14
 -8.7250001E-04    1.6012052E-13
 -8.7200000E-04    2.9319694E-13
 -8.7150000E-04    4.1190201E-13
 -8.7100000E-04    5.0828845E-13
 -8.7049999E-04    5.7619713E-13
 -8.6999999E-04    6.0907150E-13
 -8.6949999E-04    5.9648076E-13
 -8.6899998E-04    5.4024623E-13
 -8.6849998E-04    4.3033025E-13
 -8.6799997E-04    2.7413786E-13
 -8.6750003E-04    8.2348245E-14
 -8.6700002E-04   -1.2712407E-13
 -8.6650002E-04   -3.4825241E-13
 -8.6600002E-04   -5.7070527E-13
 -8.6550001E-04   -7.7699869E-13
 -8.6500001E-04   -9.4395303E-13
 -8.6450001E-04   -1.0564685E-12
 -8.6400000E-04   -1.1032864E-12
 -8.6350000E-04   -1.0826848E-12
 -8.6299999E-04   -9.8525951E-13
 -8.6249999E-04   -8.1140774E-13
 -8.6199999E-04   -5.8139518E-13
 -8.6149998E-04   -3.1131502E-13
 -8.6099998E-04   -1.0016917E-14
 -8.6049997E-04    2.9873177E-13
 -8.5999997E-04    5.8774470E-13
 -8.5950003E-04    8.4417380E-13
 -8.5900002E-04    1.0513297E-12
 -8.5850002E-04    1.1829864E-12
 -8.5800001E-04    1.2383492E-12
 -8.5750001E-04    1.1986094E-12
 -8.5700001E-04    1.0733038E-12
 -8.5650000E-04    8.6481663E-13
 -8.5600000E-04    5.8109518E-13
 -8.5549999E-04    2.2266927E-13
 -8.5499999E-04   -1.8026146E-13
 -8.5449999E-04   -6.3259782E-13
 -8.5399998E-04   -1.0967226E-12
 -8.5349998E-04   -1.5330319E-12
 -8.5299998E-04   -1.9015245E-12
 -8.5249997E-04   -2.1778284E-12
 -8.5200003E-04   -2.3561160E-12
 -8.5150002E-04   -2.4056573E-12
 -8.5100002E-04   -2.3163860E-12
 -8.5050002E-04   -2.0782356E-12
 -8.5000001E-04   -1.6986236E-12
 -8.4950001E-04   -1.2013917E-12
 -8.4900000E-04   -6.0243461E-13
 -8.4850000E-04    7.8644448E-14
 -8.4800000E-04    8.1604986E-13
 -8.4749999E-04    1.5182223E-12
 -8.4699999E-04    2.1197293E-12
 -8.4649998E-04    2.6290476E-12
 -8.4599998E-04    2.9995533E-12
 -8.4549998E-04    3.1708470E-12
 -8.4499997E-04    3.1291536E-12
 -8.4450003E-04    2.8765922E-12
 -8.4400002E-04    2.4184608E-12
 -8.4350002E-04    1.7727737E-12
 -8.4300002E-04    1.0052280E-12
 -8.4250001E-04    1.9211791E-13
 -8.4200001E-04   -6.1119057E-13
 -8.4150000E-04   -1.3864185E-12
 -8.4100000E-04   -2.0392583E-12
 -8.4050000E-04   -2.5977905E-12
 -8.3999999E-04   -2.9751245E-12
 -8.3949999E-04   -3.1437097E-12
 -8.3899999E-04   -3.0558624E-12
 -8.3849998E-04   -2.7412528E-12
 -8.3799998E-04   -2.2115365E-12
 -8.3749997E-04   -1.4804891E-12
 -8.3700003E-04   -5.8519780E-13
 -8.3650002E-04    3.9115586E-13
 -8.3600002E-04    1.4520157E-12
 -8.3550002E-04    2.4683708E-12
 -8.3500001E-04    3.2425985E-12
 -8.3450001E-04    3.8578806E-12
 -8.3400001E-04    4.1754044E-12
 -8.3350000E-04    4.1390090E-12
 -8.3300000E-04    3.7253824E-12
 -8.3249999E-04    3.0426078E-12
 -8.3199999E-04    2.0970430E-12
 -8.3149999E-04    8.8233002E-13
 -8.3099998E-04   -5.3583342E-13
 -8.3049998E-04   -2.1256582E-12
 -8.2999998E-04   -3.7843595E-12
 -8.2949997E-04   -5.4199475E-12
 -8.2900003E-04   -6.9294388E-12
 -8.2850002E-04   -8.2481947E-12
 -8.2800002E-04   -9.2702521E-12
 -8.2750001E-04   -9.9595835E-12
 -8.2700001E-04   -1.0063995E-11
 -8.2650001E-04   -9.5453385E-12
 -8.2600000E-04   -8.2701008E-12
 -8.2550000E-04   -6.3696765E-12
 -8.2500000E-04   -3.8673778E-12
 -8.2449999E-04   -8.8824195E-13
 -8.2399999E-04    2.3716981E-12
 -8.2349998E-04    5.6613082E-12
 -8.2299998E-04    8.8844262E-12
 -8.2249998E-04    1.1780116E-11
 -8.2199997E-04    1.4182014E-11
 -8.2150003E-04    1.5909982E-11
 -8.2100002E-04    1.6686395E-11
 -8.2050002E-04    1.6358666E-11
 -8.2000002E-04    1.4772086E-11
 -8.1950001E-04    1.2022024E-11
 -8.1900001E-04    8.3267646E-12
 -8.1850000E-04    3.8240613E-12
 -8.1800000E-04   -1.1703138E-12
 -8.1750000E-04   -6.3066804E-12
 -8.1699999E-04   -1.1337877E-11
 -8.1649999E-04   -1.5740444E-11
 -8.1599999E-04   -1.9098207E-11
 -8.1549998E-04   -2.1284011E-11
 -8.1499998E-04   -2.2115598E-11
 -8.1449997E-04   -2.1518792E-11
 -8.1400003E-04   -1.9535980E-11
 -8.1350002E-04   -1.6179877E-11
 -8.1300002E-04   -1.1590355E-11
 -8.1250002E-04   -6.1997473E-12
 -8.1200001E-04   -3.7256786E-13
 -8.1150001E-04    5.5902453E-12
 -8.1100001E-04    1.1424842E-11
 -8.1050000E-04    1.6592927E-11
 -8.1000000E-04    2.0878068E-11
 -8.0949999E-04    2.3808991E-11
 -8.0899999E-04    2.5239467E-11
 -8.0849999E-04    2.4938494E-11
 -8.0799998E-04    2.2731232E-11
 -8.0749998E-04    1.8894247E-11
 -8.0699997E-04    1.3609797E-11
 -8.0649997E-04    7.4098193E-12
 -8.0600003E-04    5.1048055E-13
 -8.0550002E-04   -6.2913715E-12
 -8.0500002E-04   -1.2725529E-11
 -8.0450001E-04   -1.8442312E-11
 -8.0400001E-04   -2.3098398E-11
 -8.0350001E-04   -2.6213771E-11
 -8.0300000E-04   -2.7225760E-11
 -8.0250000E-04   -2.6515307E-11
 -8.0200000E-04   -2.3742005E-11
 -8.0149999E-04   -1.9519631E-11
 -8.0099999E-04   -1.3990458E-11
 -8.0049998E-04   -7.4620466E-12
 -7.9999998E-04   -4.6315556E-13
 -7.9949998E-04    6.7264696E-12
 -7.9899997E-04    1.3619396E-11
 -7.9850003E-04    1.9793887E-11
 -7.9800002E-04    2.5018942E-11
 -7.9750002E-04    2.8963954E-11
 -7.9700002E-04    3.1412758E-11
 -7.9650001E-04    3.2238195E-11
 -7.9600001E-04    3.1173238E-11
 -7.9550000E-04    2.8726514E-11
 -7.9500000E-04    2.4531387E-11
 -7.9450000E-04    1.8776473E-11
 -7.9399999E-04    1.1708403E-11
 -7.9349999E-04    3.4228089E-12
 -7.9299998E-04   -5.5028057E-12
 -7.9249998E-04   -1.4525907E-11
 -7.9199998E-04   -2.2993760E-11
 -7.9149997E-04   -3.0554562E-11
 -7.9100003E-04   -3.6445374E-11
 -7.9050002E-04   -4.0132141E-11
 -7.9000002E-04   -4.1453795E-11
 -7.8950002E-04   -4.0079728E-11
 -7.8900001E-04   -3.6052328E-11
 -7.8850001E-04   -2.8964692E-11
 -7.8800000E-04   -2.0272766E-11
 -7.8750000E-04   -9.9744275E-12
 -7.8700000E-04    1.5679263E-12
 -7.8649999E-04    1.3508705E-11
 -7.8599999E-04    2.5017150E-11
 -7.8549999E-04    3.5542253E-11
 -7.8499998E-04    4.4422799E-11
 -7.8449998E-04    5.0768688E-11
 -7.8399997E-04    5.4011955E-11
 -7.8350003E-04    5.3906768E-11
 -7.8300002E-04    4.9758000E-11
 -7.8250002E-04    4.1896261E-11
 -7.8200002E-04    3.1152306E-11
 -7.8150001E-04    1.7801642E-11
 -7.8100001E-04    1.4135238E-12
 -7.8050001E-04   -1.6725116E-11
 -7.8000000E-04   -3.4914620E-11
 -7.7950000E-04   -5.2943060E-11
 -7.7899999E-04   -6.8953947E-11
 -7.7849999E-04   -8.1879170E-11
 -7.7799999E-04   -9.0243708E-11
 -7.7749998E-04   -9.3386354E-11
 -7.7699998E-04   -9.0289845E-11
 -7.7649998E-04   -8.0581194E-11
 -7.7599997E-04   -6.4667306E-11
 -7.7550003E-04   -4.2243001E-11
 -7.7500002E-04   -1.4914689E-11
 -7.7450002E-04    1.6831257E-11
 -7.7400001E-04    4.9280802E-11
 -7.7350001E-04    8.0967406E-11
 -7.7300001E-04    1.0933098E-10
 -7.7250000E-04    1.3201490E-10
 -7.7200000E-04    1.4761196E-10
 -7.7150000E-04    1.5503709E-10
 -7.7099999E-04    1.5296786E-10
 -7.7049999E-04    1.4152296E-10
 -7.6999998E-04    1.1970208E-10
 -7.6949998E-04    8.8810695E-11
 -7.6899998E-04    5.2477012E-11
 -7.6849997E-04    1.1086736E-11
 -7.6800003E-04   -3.3902072E-11
 -7.6750002E-04   -7.9696208E-11
 -7.6700002E-04   -1.2255727E-10
 -7.6650002E-04   -1.6041683E-10
 -7.6600001E-04   -1.8834123E-10
 -7.6550001E-04   -2.0595746E-10
 -7.6500000E-04   -2.1092585E-10
 -7.6450000E-04   -2.0233087E-10
 -7.6400000E-04   -1.7986736E-10
 -7.6349999E-04   -1.4519680E-10
 -7.6299999E-04   -1.0148965E-10
 -7.6249999E-04   -5.0788890E-11
 -7.6199998E-04    5.8034584E-12
 -7.6149998E-04    6.5244116E-11
 -7.6099997E-04    1.2276893E-10
 -7.6050003E-04    1.7515664E-10
 -7.6000002E-04    2.1645630E-10
 -7.5950002E-04    2.4493857E-10
 -7.5900002E-04    2.5734825E-10
 -7.5850001E-04    2.5185429E-10
 -7.5800001E-04    2.2974520E-10
 -7.5750001E-04    1.9102098E-10
 -7.5700000E-04    1.3992019E-10
 -7.5650000E-04    7.3696244E-11
 -7.5599999E-04   -1.4013790E-13
 -7.5549999E-04   -7.7740356E-11
 -7.5499999E-04   -1.4870299E-10
 -7.5449998E-04   -2.1038320E-10
 -7.5399998E-04   -2.6029717E-10
 -7.5349997E-04   -2.9329086E-10
 -7.5299997E-04   -3.0665157E-10
 -7.5250003E-04   -2.9797181E-10
 -7.5200002E-04   -2.6877747E-10
 -7.5150002E-04   -2.2018751E-10
 -7.5100001E-04   -1.5501633E-10
 -7.5050001E-04   -7.5908793E-11
 -7.5000001E-04    8.9970809E-12
 -7.4950000E-04    9.5954418E-11
 -7.4900000E-04    1.8242008E-10
 -7.4850000E-04    2.6131147E-10
 -7.4799999E-04    3.2541031E-10
 -7.4749999E-04    3.7005418E-10
 -7.4699998E-04    3.9299666E-10
 -7.4649998E-04    3.9137249E-10
 -7.4599998E-04    3.6058709E-10