 -1.2000001E-03    1.0000000E-24
 -1.1995001E-03    1.0000000E-24
 -1.1990000E-03    1.0000000E-24
 -1.1985000E-03    1.0000000E-24
 -1.1980000E-03    1.0000000E-24
 -1.1975000E-03    1.0000000E-24
 -1.1970000E-03    1.0000000E-24
 -1.1965000E-03    1.0000000E-24
 -1.1960000E-03    1.0000001E-24
 -1.1955000E-03    1.0000001E-24
 -1.1950000E-03    1.0000001E-24
 -1.1945000E-03    1.0000001E-24
 -1.1940000E-03    1.0000001E-24
 -1.1935000E-03    1.0000001E-24
 -1.1930000E-03    1.0000001E-24
 -1.1925000E-03    1.0000001E-24
 -1.1920000E-03    1.0000001E-24
 -1.1915000E-03    1.0000001E-24
 -1.1910000E-03    1.0000001E-24
 -1.1905000E-03    1.0000001E-24
 -1.1900000E-03    1.0000001E-24
 -1.1895000E-03    1.0000001E-24
 -1.1890000E-03    1.0000001E-24
 -1.1885000E-03    1.0000001E-24
 -1.1880000E-03    1.0000001E-24
 -1.1875000E-03    1.0000001E-24
 -1.1870000E-03    1.0000002E-24
 -1.1865000E-03    1.0000002E-24
 -1.1860000E-03    1.0000002E-24
 -1.1854999E-03    1.0000002E-24
 -1.1849999E-03    1.0000002E-24
 -1.1845001E-03    1.0000002E-24
 -1.1840001E-03    1.0000002E-24
 -1.1835000E-03    1.0000002E-24
 -1.1830000E-03    1.0000002E-24
 -1.1825000E-03    1.0000002E-24
 -1.1820000E-03    1.0000002E-24
 -1.1815000E-03    1.0000001E-24
 -1.1810000E-03    1.0000001E-24
 -1.1805000E-03    1.0000001E-24
 -1.1800000E-03    1.0000001E-24
 -1.1795000E-03    1.0000001E-24
 -1.1790000E-03    1.0000001E-24
 -1.1785000E-03    1.0000001E-24
 -1.1780000E-03    1.0000001E-24
 -1.1775000E-03    1.0000001E-24
 -1.1770000E-03    1.0000001E-24
 -1.1765000E-03    1.0000001E-24
 -1.1760000E-03    1.0000001E-24
 -1.1755000E-03    1.0000001E-24
 -1.1750000E-03    1.0000001E-24
 -1.1745000E-03    1.0000001E-24
 -1.1740000E-03    1.0000001E-24
 -1.1735000E-03    1.0000001E-24
 -1.1730000E-03    1.0000001E-24
 -1.1725000E-03    1.0000001E-24
 -1.1720000E-03    1.0000001E-24
 -1.1715000E-03    1.0000001E-24
 -1.1710000E-03    1.0000001E-24
 -1.1704999E-03    1.0000001E-24
 -1.1699999E-03    1.0000001E-24
 -1.1695001E-03    1.0000001E-24
 -1.1690001E-03    1.0000001E-24
 -1.1685000E-03    1.0000001E-24
 -1.1680000E-03    1.0000001E-24
 -1.1675000E-03    1.0000001E-24
 -1.1670000E-03    1.0000001E-24
 -1.1665000E-03    1.0000001E-24
 -1.1660000E-03    1.0000001E-24
 -1.1655000E-03    1.0000001E-24
 -1.1650000E-03    1.0000001E-24
 -1.1645000E-03    1.0000001E-24
 -1.1640000E-03    1.0000001E-24
 -1.1635000E-03    1.0000001E-24
 -1.1630000E-03    1.0000001E-24
 -1.1625000E-03    1.0000001E-24
 -1.1620000E-03    1.0000001E-24
 -1.1615000E-03    1.0000001E-24
 -1.1610000E-03    1.0000002E-24
 -1.1605000E-03    1.0000003E-24
 -1.1600000E-03    1.0000003E-24
 -1.1595000E-03    1.0000003E-24
 -1.1590000E-03    1.0000003E-24
 -1.1585000E-03    1.0000003E-24
 -1.1580000E-03    1.0000003E-24
 -1.1575000E-03    1.0000003E-24
 -1.1570000E-03    1.0000003E-24
 -1.1565000E-03    1.0000003E-24
 -1.1560000E-03    1.0000003E-24
 -1.1555000E-03    1.0000003E-24
 -1.1549999E-03    1.0000003E-24
 -1.1544999E-03    1.0000003E-24
 -1.1540001E-03    1.0000002E-24
 -1.1535001E-03    1.0000001E-24
 -1.1530000E-03    1.0000000E-24
 -1.1525000E-03    1.0000000E-24
 -1.1520000E-03    1.0000000E-24
 -1.1515000E-03    1.0000000E-24
 -1.1510000E-03    1.0000000E-24
 -1.1505000E-03    1.0000000E-24
 -1.1500000E-03    1.0000000E-24
 -1.1495000E-03    1.0000000E-24
 -1.1490000E-03    1.0000000E-24
 -1.1485000E-03    1.0000000E-24
 -1.1480000E-03    1.0000000E-24
 -1.1475000E-03    1.0000000E-24
 -1.1470000E-03    1.0000000E-24
 -1.1465000E-03    1.0000000E-24
 -1.1460000E-03    1.0000000E-24
 -1.1455000E-03    1.0000000E-24
 -1.1450000E-03    1.0000000E-24
 -1.1445000E-03    1.0000000E-24
 -1.1440000E-03    1.0000000E-24
 -1.1435000E-03    1.0000000E-24
 -1.1430000E-03    1.0000000E-24
 -1.1425000E-03    9.9999992E-25
 -1.1420000E-03    9.9999982E-25
 -1.1415000E-03    9.9999963E-25
 -1.1410000E-03    9.9999933E-25
 -1.1405000E-03    9.9999893E-25
 -1.1399999E-03    9.9999844E-25
 -1.1394999E-03    9.9999785E-25
 -1.1390001E-03    9.9999726E-25
 -1.1385001E-03    9.9999686E-25
 -1.1380001E-03    9.9999677E-25
 -1.1375000E-03    9.9999716E-25
 -1.1370000E-03    9.9999844E-25
 -1.1365000E-03    1.0000011E-24
 -1.1360000E-03    1.0000055E-24
 -1.1355000E-03    1.0000122E-24
 -1.1350000E-03    1.0000218E-24
 -1.1345000E-03    1.0000346E-24
 -1.1340000E-03    1.0000507E-24
 -1.1335000E-03    1.0000696E-24
 -1.1330000E-03    1.0000903E-24
 -1.1325000E-03    1.0001105E-24
 -1.1320000E-03    1.0001264E-24
 -1.1315000E-03    1.0001329E-24
 -1.1310000E-03    1.0001226E-24
 -1.1305000E-03    1.0000859E-24
 -1.1300000E-03    1.0000115E-24
 -1.1295000E-03    9.9988662E-25
 -1.1290000E-03    9.9969848E-25
 -1.1285000E-03    9.9943569E-25
 -1.1280000E-03    9.9909145E-25
 -1.1275000E-03    9.9866675E-25
 -1.1270000E-03    9.9817538E-25
 -1.1265000E-03    9.9764912E-25
 -1.1260000E-03    9.9714395E-25
 -1.1255000E-03    9.9674557E-25
 -1.1250000E-03    9.9657439E-25
 -1.1244999E-03    9.9678788E-25
 -1.1239999E-03    9.9757930E-25
 -1.1235001E-03    9.9917024E-25
 -1.1230001E-03    1.0017954E-24
 -1.1225000E-03    1.0056772E-24
 -1.1220000E-03    1.0109883E-24
 -1.1215000E-03    1.0178008E-24
 -1.1210000E-03    1.0260231E-24
 -1.1205000E-03    1.0353248E-24
 -1.1200000E-03    1.0450551E-24
 -1.1195000E-03    1.0541624E-24
 -1.1190000E-03    1.0611254E-24
 -1.1185000E-03    1.0639119E-24
 -1.1180000E-03    1.0599833E-24
 -1.1175000E-03    1.0463682E-24
 -1.1170000E-03    1.0198272E-24
 -1.1165000E-03    9.7713469E-25
 -1.1160000E-03    9.1549399E-25
 -1.1155000E-03    8.3310032E-25
 -1.1150000E-03    7.2984662E-25
 -1.1145000E-03    6.0815254E-25
 -1.1140000E-03    4.7386786E-25
 -1.1135000E-03    3.3717365E-25
 -1.1130000E-03    2.1336755E-25
 -1.1125000E-03    1.2338296E-25
 -1.1120000E-03    9.3860254E-26
 -1.1115000E-03    1.5655907E-25
 -1.1110000E-03    3.4689170E-25
 -1.1105000E-03    7.0136731E-25
 -1.1100000E-03    1.2537771E-24
 -1.1094999E-03    2.0300306E-24
 -1.1089999E-03    3.0416743E-24
 -1.1084999E-03    4.2782956E-24
 -1.1080001E-03    5.6992325E-24
 -1.1075001E-03    7.2252614E-24
 -1.1070000E-03    8.7312229E-24
 -1.1065000E-03    1.0040823E-23
 -1.1060000E-03    1.0925098E-23
 -1.1055000E-03    1.1106222E-23
 -1.1050000E-03    1.0268359E-23
 -1.1045000E-03    8.0771863E-24
 -1.1040000E-03    4.2093208E-24
 -1.1035000E-03   -1.6077313E-24
 -1.1030000E-03   -9.5454284E-24
 -1.1025000E-03   -1.9615456E-23
 -1.1020000E-03   -3.1605567E-23
 -1.1015000E-03   -4.5014984E-23
 -1.1010000E-03   -5.8996257E-23
 -1.1005000E-03   -7.2312355E-23
 -1.1000000E-03   -8.3319382E-23
 -1.0995000E-03   -8.9986247E-23
 -1.0990000E-03   -8.9962897E-23
 -1.0985000E-03   -8.0707577E-23
 -1.0980000E-03   -5.9680988E-23
 -1.0975000E-03   -2.4610976E-23
 -1.0970000E-03    2.6175085E-23
 -1.0965000E-03    9.3360880E-23
 -1.0960000E-03    1.7621565E-22
 -1.0955000E-03    2.7216406E-22
 -1.0950000E-03    3.7639502E-22
 -1.0945000E-03    4.8156255E-22
 -1.0939999E-03    5.7764238E-22
 -1.0934999E-03    6.5201068E-22
 -1.0930001E-03    6.8981320E-22
 -1.0925001E-03    6.7468368E-22
 -1.0920000E-03    5.8985586E-22
 -1.0915000E-03    4.1968582E-22
 -1.0910000E-03    1.5156717E-22
 -1.0905000E-03   -2.2182589E-22
 -1.0900000E-03   -7.0008596E-22
 -1.0895000E-03   -1.2725864E-21
 -1.0890000E-03   -1.9161994E-21
 -1.0885000E-03   -2.5935085E-21
 -1.0880000E-03   -3.2518459E-21
 -1.0875000E-03   -3.8235091E-21
 -1.0870000E-03   -4.2275008E-21
 -1.0865000E-03   -4.3730923E-21
 -1.0860000E-03   -4.1654162E-21
 -1.0855000E-03   -3.5131750E-21
 -1.0850000E-03   -2.3383441E-21
 -1.0845000E-03   -5.8753956E-22
 -1.0840000E-03    1.7555424E-21
 -1.0835000E-03    4.6575010E-21
 -1.0830000E-03    8.0235558E-21
 -1.0825000E-03    1.1688225E-20
 -1.0820000E-03    1.5409911E-20
 -1.0815000E-03    1.8871035E-20
 -1.0810000E-03    2.1685276E-20
 -1.0805000E-03    2.3413292E-20
 -1.0800000E-03    2.3587764E-20
 -1.0795000E-03    2.1748100E-20
 -1.0790000E-03    1.7484217E-20
 -1.0784999E-03    1.0487809E-20
 -1.0779999E-03    6.0845879E-22
 -1.0775001E-03   -1.2089334E-20
 -1.0770001E-03   -2.7273188E-20
 -1.0765000E-03   -4.4299900E-20
 -1.0760000E-03   -6.2189157E-20
 -1.0755000E-03   -7.9620735E-20
 -1.0750000E-03   -9.4961549E-20
 -1.0745000E-03   -1.0632803E-19
 -1.0740000E-03   -1.1168717E-19
 -1.0735000E-03   -1.0899727E-19
 -1.0730000E-03   -9.6385663E-20
 -1.0725000E-03   -7.2356939E-20
 -1.0720000E-03   -3.6020591E-20
 -1.0715000E-03    1.2677390E-20
 -1.0710000E-03    7.2738812E-20
 -1.0705000E-03    1.4193662E-19
 -1.0700000E-03    2.1670276E-19
 -1.0695000E-03    2.9210619E-19
 -1.0690000E-03    3.6194531E-19
 -1.0685000E-03    4.1897393E-19
 -1.0680000E-03    4.5527344E-19
 -1.0675000E-03    4.6277291E-19
 -1.0670000E-03    4.3390679E-19
 -1.0665000E-03    3.6238480E-19
 -1.0660000E-03    2.4403304E-19
 -1.0655000E-03    7.7648846E-20
 -1.0650000E-03   -1.3420164E-19
 -1.0645000E-03   -3.8452657E-19
 -1.0640000E-03   -6.6148150E-19
 -1.0634999E-03   -9.4826228E-19
 -1.0629999E-03   -1.2234001E-18
 -1.0625001E-03   -1.4615237E-18
 -1.0620001E-03   -1.6346271E-18
 -1.0615001E-03   -1.7138486E-18
 -1.0610000E-03   -1.6717190E-18
 -1.0605000E-03   -1.4847880E-18
 -1.0600000E-03   -1.1364894E-18
 -1.0595000E-03   -6.2004699E-19
 -1.0590000E-03    5.8818358E-20
 -1.0585000E-03    8.7965602E-19
 -1.0580000E-03    1.8058230E-18
 -1.0575000E-03    2.7840794E-18
 -1.0570000E-03    3.7455106E-18
 -1.0565000E-03    4.6079676E-18
 -1.0560000E-03    5.2801540E-18
 -1.0555000E-03    5.6673452E-18
 -1.0550000E-03    5.6786040E-18
 -1.0545000E-03    5.2351814E-18
 -1.0540000E-03    4.2796447E-18
 -1.0535000E-03    2.7850888E-18
 -1.0530000E-03    7.6367496E-19
 -1.0525000E-03   -1.7263748E-18
 -1.0520000E-03   -4.5762460E-18
 -1.0515000E-03   -7.6253529E-18
 -1.0510000E-03   -1.0664295E-17
 -1.0505000E-03   -1.3442552E-17
 -1.0500000E-03   -1.5681207E-17
 -1.0495000E-03   -1.7090645E-17
 -1.0490000E-03   -1.7392725E-17
 -1.0485000E-03   -1.6346411E-17
 -1.0479999E-03   -1.3775390E-17
 -1.0474999E-03   -9.5957046E-18
 -1.0470001E-03   -3.8410252E-18
 -1.0465001E-03    3.3170509E-18
 -1.0460000E-03    1.1556439E-17
 -1.0455000E-03    2.0402342E-17
 -1.0450000E-03    2.9237622E-17
 -1.0445000E-03    3.7327379E-17
 -1.0440000E-03    4.3858440E-17
 -1.0435000E-03    4.7993297E-17
 -1.0430000E-03    4.8936733E-17
 -1.0425000E-03    4.6011832E-17
 -1.0420000E-03    3.8740700E-17
 -1.0415000E-03    2.6923769E-17
 -1.0410000E-03    1.0710590E-17
 -1.0405000E-03   -9.3458298E-18
 -1.0400000E-03   -3.2259041E-17
 -1.0395000E-03   -5.6611010E-17
 -1.0390000E-03   -8.0591929E-17
 -1.0385000E-03   -1.0208194E-16
 -1.0380000E-03   -1.1877603E-16
 -1.0375000E-03   -1.2834947E-16
 -1.0370000E-03   -1.2865730E-16
 -1.0365000E-03   -1.1795715E-16
 -1.0360000E-03   -9.5139892E-17
 -1.0355000E-03   -5.9949816E-17
 -1.0350000E-03   -1.3172076E-17
 -1.0345000E-03    4.3235331E-17
 -1.0340000E-03    1.0608810E-16
 -1.0335000E-03    1.7102105E-16
 -1.0329999E-03    2.3264798E-16
 -1.0324999E-03    2.8484474E-16
 -1.0319999E-03    3.2115461E-16
 -1.0315001E-03    3.3530379E-16
 -1.0310001E-03    3.2180312E-16
 -1.0305000E-03    2.7659842E-16
 -1.0300000E-03    1.9772115E-16
 -1.0295000E-03    8.5879446E-17
 -1.0290000E-03   -5.5074810E-17
 -1.0285000E-03   -2.1787154E-16
 -1.0280000E-03   -3.9180382E-16
 -1.0275000E-03   -5.6301941E-16
 -1.0270000E-03   -7.1515770E-16
 -1.0265000E-03   -8.3034523E-16
 -1.0260000E-03   -8.9053158E-16
 -1.0255000E-03   -8.7911247E-16
 -1.0250000E-03   -7.8275019E-16
 -1.0245000E-03   -5.9326574E-16
 -1.0240000E-03   -3.0944247E-16
 -1.0235000E-03    6.1439965E-17
 -1.0230000E-03    5.0253994E-16
 -1.0225000E-03    9.8704792E-16
 -1.0220000E-03    1.4786137E-15
 -1.0215000E-03    1.9327388E-15
 -1.0210000E-03    2.2992032E-15
 -1.0205000E-03    2.5255162E-15
 -1.0200000E-03    2.5612872E-15
 -1.0195000E-03    2.3632996E-15
 -1.0190000E-03    1.9009728E-15
 -1.0185000E-03    1.1617854E-15
 -1.0180000E-03    1.5616107E-16
 -1.0174999E-03   -1.0787451E-15
 -1.0169999E-03   -2.4769270E-15
 -1.0165001E-03   -3.9436118E-15
 -1.0160001E-03   -5.3579865E-15
 -1.0155000E-03   -6.5788613E-15
 -1.0150000E-03   -7.4533461E-15
 -1.0145000E-03   -7.8283691E-15
 -1.0140000E-03   -7.5645565E-15
 -1.0135000E-03   -6.5517024E-15
 -1.0130000E-03   -4.7247371E-15
 -1.0125000E-03   -2.0788556E-15
 -1.0120000E-03    1.3177415E-15
 -1.0115000E-03    5.3151135E-15
 -1.0110000E-03    9.6784560E-15
 -1.0105000E-03    1.4091975E-14
 -1.0100000E-03    1.8170818E-14
 -1.0095000E-03    2.1481579E-14
 -1.0090000E-03    2.3571240E-14
 -1.0085000E-03    2.4003619E-14
 -1.0080000E-03    2.2401545E-14
 -1.0075000E-03    1.8492108E-14
 -1.0070000E-03    1.2151541E-14
 -1.0065000E-03    3.4456997E-15
 -1.0060000E-03   -7.3383716E-15
 -1.0055000E-03   -1.9674265E-14
 -1.0050000E-03   -3.2795649E-14
 -1.0045000E-03   -4.5716743E-14
 -1.0040000E-03   -5.7276036E-14
 -1.0035000E-03   -6.6203838E-14
 -1.0030000E-03   -7.1212222E-14
 -1.0025000E-03   -7.1103645E-14
 -1.0019999E-03   -6.4892326E-14
 -1.0014999E-03   -5.1929984E-14
 -1.0010001E-03   -3.2025852E-14
 -1.0005001E-03   -5.5493419E-15
 -1.0000000E-03    2.6496764E-14
 -9.9950004E-04    6.2444434E-14
 -9.9900004E-04    9.9980164E-14
 -9.9850004E-04    1.3622411E-13
 -9.9800003E-04    1.6787251E-13
 -9.9750003E-04    1.9140256E-13
 -9.9700002E-04    2.0333304E-13
 -9.9650002E-04    2.0052849E-13
 -9.9600002E-04    1.8052832E-13
 -9.9550001E-04    1.4187673E-13
 -9.9500001E-04    8.4425610E-14
 -9.9450001E-04    9.5793777E-15
 -9.9400000E-04   -7.9549336E-14
 -9.9350000E-04   -1.7810188E-13
 -9.9299999E-04   -2.7957750E-13
 -9.9249999E-04   -3.7609420E-13
 -9.9199999E-04   -4.5881159E-13
 -9.9149998E-04   -5.1850700E-13
 -9.9099998E-04   -5.4628199E-13
 -9.9049998E-04   -5.3436118E-13
 -9.8999997E-04   -4.7693137E-13
 -9.8949997E-04   -3.7095647E-13
 -9.8899996E-04   -2.1689500E-13
 -9.8849996E-04   -1.9244192E-14
 -9.8799996E-04    2.1316439E-13
 -9.8749995E-04    4.6718293E-13
 -9.8699995E-04    7.2572823E-13
 -9.8649994E-04    9.6855293E-13
 -9.8600006E-04    1.1734041E-12
 -9.8550005E-04    1.3175344E-12
 -9.8500005E-04    1.3794949E-12
 -9.8450005E-04    1.3411062E-12
 -9.8400004E-04    1.1894669E-12
 -9.8350004E-04    9.1884334E-13
 -9.8300003E-04    5.3225919E-13
 -9.8250003E-04    4.2610196E-14
 -9.8200003E-04   -5.2686290E-13
 -9.8150002E-04   -1.1428816E-12
 -9.8100002E-04   -1.7633087E-12
 -9.8050002E-04   -2.3392332E-12
 -9.8000001E-04   -2.8179254E-12
 -9.7950001E-04   -3.1465468E-12
 -9.7900000E-04   -3.2764219E-12
 -9.7850000E-04   -3.1675999E-12
 -9.7800000E-04   -2.7933749E-12
 -9.7749999E-04   -2.1443869E-12
 -9.7699999E-04   -1.2319016E-12
 -9.7649998E-04   -8.9887563E-14
 -9.7599998E-04    1.2244581E-12
 -9.7549998E-04    2.6319955E-12
 -9.7499997E-04    4.0348922E-12
 -9.7450003E-04    5.3218476E-12
 -9.7400002E-04    6.3751387E-12
 -9.7350002E-04    7.0791688E-12
 -9.7300002E-04    7.3300237E-12
 -9.7250001E-04    7.0454016E-12
 -9.7200001E-04    6.1741497E-12
 -9.7150001E-04    4.7045861E-12
 -9.7100000E-04    2.6707657E-12
 -9.7050000E-04    1.5590136E-13
 -9.6999999E-04   -2.7077112E-12
 -9.6949999E-04   -5.7427218E-12
 -9.6899999E-04   -8.7349000E-12
 -9.6849998E-04   -1.1445335E-11
 -9.6799998E-04   -1.3626197E-11
 -9.6749997E-04   -1.5039242E-11
 -9.6700003E-04   -1.5475921E-11
 -9.6650003E-04   -1.4777677E-11
 -9.6600002E-04   -1.2854813E-11
 -9.6550002E-04   -9.7022321E-12
 -9.6500001E-04   -5.4104035E-12
 -9.6450001E-04   -1.7007114E-13
 -9.6400001E-04    5.7304348E-12
 -9.6350000E-04    1.1915973E-11
 -9.6300000E-04    1.7943572E-11
 -9.6249999E-04    2.3329077E-11
 -9.6199999E-04    2.7580256E-11
 -9.6149999E-04    3.0234478E-11
 -9.6099998E-04    3.0898492E-11
 -9.6049998E-04    2.9287371E-11
 -9.5999998E-04    2.5259433E-11
 -9.5949997E-04    1.8843890E-11
 -9.5900003E-04    1.0258150E-11
 -9.5850002E-04   -8.7707456E-14
 -9.5800002E-04   -1.1601151E-11
 -9.5750001E-04   -2.3532915E-11
 -9.5700001E-04   -3.5017902E-11
 -9.5650001E-04   -4.5129692E-11
 -9.5600000E-04   -5.2945849E-11
 -9.5550000E-04   -5.7619999E-11
 -9.5500000E-04   -5.8455726E-11
 -9.5449999E-04   -5.4976638E-11
 -9.5399999E-04   -4.6986633E-11
 -9.5349998E-04   -3.4614655E-11
 -9.5299998E-04   -1.8338680E-11
 -9.5249998E-04    1.0150069E-12
 -9.5199997E-04    2.2299740E-11
 -9.5150003E-04    4.4104231E-11
 -9.5100002E-04    6.4834478E-11
 -9.5050002E-04    8.2818113E-11
 -9.5000002E-04    9.6425146E-11
 -9.4950001E-04    1.0419726E-10
 -9.4900001E-04    1.0497644E-10
 -9.4850000E-04    9.8022652E-11
 -9.4800000E-04    8.3110505E-11
 -9.4750000E-04    6.0595286E-11
 -9.4699999E-04    3.1440323E-11
 -9.4649999E-04   -2.7999512E-12
 -9.4599999E-04   -4.0044017E-11
 -9.4549998E-04   -7.7793640E-11
 -9.4499998E-04   -1.1328612E-10
 -9.4449997E-04   -1.4368043E-10
 -9.4400003E-04   -1.6626556E-10
 -9.4350002E-04   -1.7867709E-10
 -9.4300002E-04   -1.7910573E-10
 -9.4250002E-04   -1.6648116E-10
 -9.4200001E-04   -1.4061489E-10
 -9.4150001E-04   -1.0228764E-10
 -9.4100001E-04   -5.3270138E-11
 -9.4050000E-04    3.7295436E-12
 -9.4000000E-04    6.5194121E-11
 -9.3949999E-04    1.2699639E-10
 -9.3899999E-04    1.8466012E-10
 -9.3849999E-04    2.3366695E-10
 -9.3799998E-04    2.6978955E-10
 -9.3749998E-04    2.8942695E-10
 -9.3699998E-04    2.8991731E-10
 -9.3649997E-04    2.6980193E-10
 -9.3600003E-04    2.2901778E-10
 -9.3550002E-04    1.6899836E-10
 -9.3500002E-04    9.2669768E-11
 -9.3450001E-04    4.3349499E-12
 -9.3400001E-04   -9.0551698E-11
 -9.3350001E-04   -1.8570953E-10
 -9.3300000E-04   -2.7443792E-10
 -9.3250000E-04   -3.5007761E-10
 -9.3200000E-04   -4.0649586E-10
 -9.3149999E-04   -4.3855994E-10
 -9.3099999E-04   -4.4256276E-10
 -9.3049998E-04   -4.1656661E-10
 -9.2999998E-04   -3.6063461E-10
 -9.2949998E-04   -2.7692759E-10
 -9.2899997E-04   -1.6965289E-10
 -9.2850003E-04   -4.4861857E-11
 -9.2800002E-04    8.9894460E-11
 -9.2750002E-04    2.2603226E-10
 -9.2700002E-04    3.5449402E-10
 -9.2650001E-04    4.6636195E-10
 -9.2600001E-04    5.5348198E-10
 -9.2550000E-04    6.0905253E-10
 -9.2500000E-04    6.2813432E-10
 -9.2450000E-04    6.0804128E-10
 -9.2399999E-04    5.4858162E-10
 -9.2349999E-04    4.5212881E-10
 -9.2299999E-04    3.2351474E-10
 -9.2249998E-04    1.6975116E-10
 -9.2199998E-04   -4.0188493E-13
 -9.2149997E-04   -1.7698906E-10
 -9.2100003E-04   -3.4949443E-10
 -9.2050002E-04   -5.0751109E-10
 -9.2000002E-04   -6.4139694E-10
 -9.1950002E-04   -7.4286999E-10
 -9.1900001E-04   -8.0550155E-10
 -9.1850001E-04   -8.2507540E-10
 -9.1800001E-04   -7.9979257E-10
 -9.1750000E-04   -7.3031475E-10
 -9.1700000E-04   -6.1965238E-10
 -9.1649999E-04   -4.7291682E-10
 -9.1599999E-04   -2.9696529E-10
 -9.1549999E-04   -9.9975132E-11
 -9.1499998E-04    1.0901337E-10
 -9.1449998E-04    3.2054814E-10
 -9.1399997E-04    5.2517696E-10
 -9.1349997E-04    7.1379636E-10
 -9.1300003E-04    8.7792451E-10
 -9.1250002E-04    1.0098985E-09
 -9.1200002E-04    1.1030066E-09
 -9.1150001E-04    1.1515785E-09
 -9.1100001E-04    1.1510617E-09
 -9.1050001E-04    1.0981123E-09
 -9.1000000E-04    9.9073261E-10
 -9.0950000E-04    8.2846857E-10
 -9.0899999E-04    6.1267930E-10
 -9.0849999E-04    3.4686357E-10
 -9.0799999E-04    3.7018191E-11
 -9.0749998E-04   -3.0801967E-10
 -9.0699998E-04   -6.7630679E-10
 -9.0649998E-04   -1.0526763E-09
 -9.0599997E-04   -1.4188398E-09
 -9.0550003E-04   -1.7537789E-09
 -9.0500002E-04   -2.0344724E-09
 -9.0450002E-04   -2.2369886E-09
 -9.0400001E-04   -2.3379285E-09
 -9.0350001E-04   -2.3161741E-09
 -9.0300001E-04   -2.1548492E-09
 -9.0250000E-04   -1.8433589E-09
 -9.0200000E-04   -1.3793421E-09
 -9.0150000E-04   -7.7034351E-10
 -9.0099999E-04   -3.5006911E-11
 -9.0049999E-04    7.9640838E-10
 -8.9999998E-04    1.6823475E-09
 -8.9949998E-04    2.5712370E-09
 -8.9899998E-04    3.4037688E-09
 -8.9849997E-04    4.1161576E-09
 -8.9800003E-04    4.6442556E-09
 -8.9750002E-04    4.9283089E-09
 -8.9700002E-04    4.9180549E-09
 -8.9650002E-04    4.5777924E-09
 -8.9600001E-04    3.8910044E-09
 -8.9550001E-04    2.8640976E-09
 -8.9500000E-04    1.5288351E-09
 -8.9450000E-04   -5.6898493E-11
 -8.9400000E-04   -1.8102679E-09
 -8.9349999E-04   -3.6267407E-09
 -8.9299999E-04   -5.3854059E-09
 -8.9249999E-04   -6.9561721E-09
 -8.9199998E-04   -8.2084926E-09
 -8.9149998E-04   -9.0210799E-09
 -8.9099997E-04   -9.2919583E-09
 -8.9050003E-04   -8.9480885E-09
 -8.9000002E-04   -7.9537683E-09
 -8.8950002E-04   -6.3170087E-09
 -8.8900002E-04   -4.0931969E-09
 -8.8850001E-04   -1.3854968E-09
 -8.8800001E-04    1.6583688E-09
 -8.8750001E-04    4.8530207E-09
 -8.8700000E-04    7.9858129E-09
 -8.8650000E-04    1.0830218E-08
 -8.8599999E-04    1.3161403E-08
 -8.8549999E-04    1.4772993E-08
 -8.8499999E-04    1.5493823E-08
 -8.8449998E-04    1.5203344E-08
 -8.8399998E-04    1.3844438E-08
 -8.8349998E-04    1.1432406E-08
 -8.8299997E-04    8.0591853E-09
 -8.8250003E-04    3.8920986E-09
 -8.8200002E-04   -8.3314222E-10
 -8.8150002E-04   -5.8250391E-09
 -8.8100001E-04   -1.0753922E-08
 -8.8050001E-04   -1.5273551E-08
 -8.8000001E-04   -1.9045299E-08
 -8.7950000E-04   -2.1763210E-08
 -8.7900000E-04   -2.3178082E-08
 -8.7850000E-04   -2.3118652E-08
 -8.7799999E-04   -2.1508134E-08
 -8.7749999E-04   -1.8374559E-08
 -8.7699998E-04   -1.3853859E-08
 -8.7649998E-04   -8.1850864E-09
 -8.7599998E-04   -1.6977820E-09
 -8.7549997E-04    5.2078928E-09
 -8.7500003E-04    1.2087012E-08
 -8.7450002E-04    1.8479998E-08
 -8.7400002E-04    2.3944832E-08
 -8.7350002E-04    2.8088955E-08
 -8.7300001E-04    3.0598397E-08
 -8.7250001E-04    3.1261830E-08
 -8.7200000E-04    2.9987557E-08
 -8.7150000E-04    2.6811957E-08
 -8.7100000E-04    2.1898611E-08
 -8.7049999E-04    1.5527986E-08
 -8.6999999E-04    8.0784446E-09
 -8.6949999E-04   -7.5420159E-14
 -8.6899998E-04   -8.2175973E-09
 -8.6849998E-04   -1.6078381E-08
 -8.6799997E-04   -2.3115172E-08
 -8.6750003E-04   -2.8920645E-08
 -8.6700002E-04   -3.3173514E-08
 -8.6650002E-04   -3.5657241E-08
 -8.6600002E-04   -3.6269920E-08
 -8.6550001E-04   -3.5024783E-08
 -8.6500001E-04   -3.2041534E-08
 -8.6450001E-04   -2.7529740E-08
 -8.6400000E-04   -2.1766080E-08
 -8.6350000E-04   -1.5068014E-08
 -8.6299999E-04   -7.7666638E-09
 -8.6249999E-04   -1.8180593E-10
 -8.6199999E-04    7.3983819E-09
 -8.6149998E-04    1.4730719E-08
 -8.6099998E-04    2.1622240E-08
 -8.6049997E-04    2.7926912E-08
 -8.5999997E-04    3.3534537E-08
 -8.5950003E-04    3.8353633E-08
 -8.5900002E-04    4.2290903E-08
 -8.5850002E-04    4.5230689E-08
 -8.5800001E-04    4.7017938E-08
 -8.5750001E-04    4.7448371E-08
 -8.5700001E-04    4.6268767E-08
 -8.5650000E-04    4.3189573E-08
 -8.5600000E-04    3.7910631E-08
 -8.5549999E-04    3.0159253E-08
 -8.5499999E-04    1.9738330E-08
 -8.5449999E-04    6.5803514E-09
 -8.5399998E-04   -9.1980290E-09
 -8.5349998E-04   -2.7247353E-08
 -8.5299998E-04   -4.6949559E-08
 -8.5249997E-04   -6.7401693E-08
 -8.5200003E-04   -8.7424908E-08
 -8.5150002E-04   -1.0560293E-07
 -8.5100002E-04   -1.2035167E-07
 -8.5050002E-04   -1.3001902E-07
 -8.5000001E-04   -1.3301079E-07
 -8.4950001E-04   -1.2793527E-07
 -8.4900000E-04   -1.1375652E-07
 -8.4850000E-04   -8.9943548E-08
 -8.4800000E-04   -5.6601568E-08
 -8.4749999E-04   -1.4570867E-08
 -8.4699999E-04    3.4520351E-08
 -8.4649998E-04    8.8260428E-08
 -8.4599998E-04    1.4352405E-07
 -8.4549998E-04    1.9661049E-07
 -8.4499997E-04    2.4344851E-07
 -8.4450003E-04    2.7985936E-07
 -8.4400002E-04    3.0186428E-07
 -8.4350002E-04    3.0601674E-07
 -8.4300002E-04    2.8973565E-07
 -8.4250001E-04    2.5161279E-07
 -8.4200001E-04    1.9166644E-07
 -8.4150000E-04    1.1151475E-07
 -8.4100000E-04    1.4445753E-08
 -8.4050000E-04   -9.4633258E-08
 -8.3999999E-04   -2.0937668E-07
 -8.3949999E-04   -3.2231162E-07
 -8.3899999E-04   -4.2526915E-07
 -8.3849998E-04   -5.0991457E-07
 -8.3799998E-04   -5.6834625E-07
 -8.3749997E-04   -5.9372417E-07
 -8.3700003E-04   -5.8088165E-07
 -8.3650002E-04   -5.2687386E-07
 -8.3600002E-04   -4.3141350E-07
 -8.3550002E-04   -2.9715056E-07
 -8.3500001E-04   -1.2976018E-07
 -8.3450001E-04    6.2185009E-08
 -8.3400001E-04    2.6756894E-07
 -8.3350000E-04    4.7330505E-07
 -8.3300000E-04    6.6510535E-07
 -8.3249999E-04    8.2840398E-07
 -8.3199999E-04    9.4938110E-07
 -8.3149999E-04    1.0160174E-06
 -8.3099998E-04    1.0191063E-06
 -8.3049998E-04    9.5314346E-07
 -8.2999998E-04    8.1701961E-07
 -8.2949997E-04    6.1445081E-07
 -8.2900003E-04    3.5409332E-07
 -8.2850002E-04    4.9312078E-08
 -8.2800002E-04   -2.8240618E-07
 -8.2750001E-04   -6.2037890E-07
 -8.2700001E-04   -9.4194905E-07
 -8.2650001E-04   -1.2239353E-06
 -8.2600000E-04   -1.4442206E-06
 -8.2550000E-04   -1.5833759E-06
 -8.2500000E-04   -1.6262043E-06
 -8.2449999E-04   -1.5630875E-06
 -8.2399999E-04   -1.3910297E-06
 -8.2349998E-04   -1.1143015E-06
 -8.2299998E-04   -7.4461377E-07
 -8.2249998E-04   -3.0078311E-07
 -8.2199997E-04    1.9212219E-07
 -8.2150003E-04    7.0412273E-07
 -8.2100002E-04    1.2020901E-06
 -8.2050002E-04    1.6518305E-06
 -8.2000002E-04    2.0203615E-06
 -8.1950001E-04    2.2782331E-06
 -8.1900001E-04    2.4017322E-06
 -8.1850000E-04    2.3748144E-06
 -8.1800000E-04    2.1906092E-06
 -8.1750000E-04    1.8523788E-06
 -8.1699999E-04    1.3738326E-06
 -8.1649999E-04    7.7874626E-07
 -8.1599999E-04    9.9880076E-08
 -8.1549998E-04   -6.2276479E-07
 -8.1499998E-04   -1.3442603E-06
 -8.1449997E-04   -2.0175044E-06
 -8.1400003E-04   -2.5962436E-06
 -8.1350002E-04   -3.0381732E-06
 -8.1300002E-04   -3.3079086E-06
 -8.1250002E-04   -3.3796202E-06
 -8.1200001E-04   -3.2391463E-06
 -8.1150001E-04   -2.8854170E-06
 -8.1100001E-04   -2.3310761E-06
 -8.1050000E-04   -1.6022234E-06
 -8.1000000E-04   -7.3726972E-07
 -8.0949999E-04    2.1505360E-07
 -8.0899999E-04    1.1984247E-06
 -8.0849999E-04    2.1522478E-06
 -8.0799998E-04    3.0153569E-06
 -8.0749998E-04    3.7298792E-06
 -8.0699997E-04    4.2450106E-06
 -8.0649997E-04    4.5204620E-06
 -8.0600003E-04    4.5293427E-06
 -8.0550002E-04    4.2602915E-06
 -8.0500002E-04    3.7186853E-06
 -8.0450001E-04    2.9268529E-06
 -8.0400001E-04    1.9232311E-06
 -8.0350001E-04    7.6051379E-07
 -8.0300000E-04   -4.9712332E-07
 -8.0250000E-04   -1.7775675E-06
 -8.0200000E-04   -3.0048793E-06
 -8.0149999E-04   -4.1037320E-06
 -8.0099999E-04   -5.0039157E-06
 -8.0049998E-04   -5.6446434E-06
 -7.9999998E-04   -5.9783920E-06
 -7.9949998E-04   -5.9740573E-06
 -7.9899997E-04   -5.6192152E-06
 -7.9850003E-04   -4.9213613E-06
 -7.9800002E-04   -3.9080278E-06
 -7.9750002E-04   -2.6257737E-06
 -7.9700002E-04   -1.1380737E-06
 -7.9650001E-04    4.7778087E-07
 -7.9600001E-04    2.1346141E-06
 -7.9550000E-04    3.7399295E-06
 -7.9500000E-04    5.2008695E-06
 -7.9450000E-04    6.4293076E-06
 -7.9399999E-04    7.3468150E-06
 -7.9349999E-04    7.8892326E-06
 -7.9299998E-04    8.0106129E-06
 -7.9249998E-04    7.6863134E-06
 -7.9199998E-04    6.9150724E-06
 -7.9149997E-04    5.7199336E-06
 -7.9100003E-04    4.1479525E-06
 -7.9050002E-04    2.2686552E-06
 -7.9000002E-04    1.7129435E-07
 -7.8950002E-04   -2.0390114E-06
 -7.8900001E-04   -4.2461033E-06
 -7.8850001E-04   -6.3283846E-06
 -7.8800000E-04   -8.1649614E-06
 -7.8750000E-04   -9.6420454E-06
 -7.8700000E-04   -1.0659329E-05
 -7.8649999E-04   -1.1136020E-05
 -7.8599999E-04   -1.1016207E-05
 -7.8549999E-04   -1.0273274E-05
 -7.8499998E-04   -8.9130472E-06
 -7.8449998E-04   -6.9754656E-06
 -7.8399997E-04   -4.5345614E-06
 -7.8350003E-04   -1.6966297E-06
 -7.8300002E-04    1.4034445E-06
 -7.8250002E-04    4.6076657E-06
 -7.8200002E-04    7.7420600E-06
 -7.8150001E-04    1.0625208E-05
 -7.8100001E-04    1.3077840E-05
 -7.8050001E-04    1.4933037E-05
 -7.8000000E-04    1.6046539E-05
 -7.7950000E-04    1.6306567E-05
 -7.7899999E-04    1.5642578E-05
 -7.7849999E-04    1.4032345E-05
 -7.7799999E-04    1.1506798E-05
 -7.7749998E-04    8.1521694E-06
 -7.7699998E-04    4.1090575E-06
 -7.7649998E-04   -4.3177687E-07
 -7.7599997E-04   -5.2369351E-06
 -7.7550003E-04   -1.0041040E-05
 -7.7500002E-04   -1.4560160E-05
 -7.7450002E-04   -1.8507410E-05
 -7.7400001E-04   -2.1609958E-05
 -7.7350001E-04   -2.3626491E-05
 -7.7300001E-04   -2.4364139E-05
 -7.7250000E-04   -2.3693690E-05
 -7.7200000E-04   -2.1562100E-05
 -7.7150000E-04   -1.8001205E-05
 -7.7099999E-04   -1.3131862E-05
 -7.7049999E-04   -7.1628569E-06
 -7.6999998E-04   -3.8426066E-07
 -7.6949998E-04    6.8447739E-06
 -7.6899998E-04    1.4113421E-05
 -7.6849997E-04    2.0981081E-05
 -7.6800003E-04    2.7002698E-05
 -7.6750002E-04    3.1756135E-05
 -7.6700002E-04    3.4870012E-05
 -7.6650002E-04    3.6050253E-05
 -7.6600001E-04    3.5103534E-05
 -7.6550001E-04    3.1955969E-05
 -7.6500000E-04    2.6665446E-05
 -7.6450000E-04    1.9426425E-05
 -7.6400000E-04    1.0566399E-05
 -7.6349999E-04    5.3368336E-07
 -7.6299999E-04   -1.0123244E-05
 -7.6249999E-04   -2.0784049E-05
 -7.6199998E-04   -3.0791172E-05
 -7.6149998E-04   -3.9488914E-05
 -7.6099997E-04   -4.6264780E-05
 -7.6050003E-04   -5.0590530E-05
 -7.6000002E-04   -5.2060263E-05
 -7.5950002E-04   -5.0422950E-05
 -7.5900002E-04   -4.5606979E-05
 -7.5850001E-04   -3.7734677E-05
 -7.5800001E-04   -2.7125321E-05
 -7.5750001E-04   -1.4285803E-05
 -7.5700000E-04    1.1113067E-07
 -7.5650000E-04    1.5260313E-05
 -7.5599999E-04    3.0267756E-05
 -7.5549999E-04    4.4202170E-05
 -7.5499999E-04    5.6151446E-05
 -7.5449998E-04    6.5280823E-05
 -7.5399998E-04    7.0889007E-05
 -7.5349997E-04    7.2458635E-05
 -7.5299997E-04    6.9697526E-05
 -7.5250003E-04    6.2567706E-05
 -7.5200002E-04    5.1299692E-05
 -7.5150002E-04    3.6390567E-05
 -7.5100001E-04    1.8585148E-05
 -7.5050001E-04   -1.1593266E-06
 -7.5000001E-04   -2.1723363E-05
 -7.4950000E-04   -4.1887790E-05
 -7.4900000E-04   -6.0405273E-05
 -7.4850000E-04   -7.6076569E-05
 -7.4799999E-04   -8.7826978E-05
 -7.4749999E-04   -9.4778028E-05
 -7.4699998E-04   -9.6309850E-05
 -7.4649998E-04   -9.2109804E-05
 -7.4599998E-04   -8.2203820E-05