 -1.2000001E-03    1.0000000E-24
 -1.1995001E-03    1.0000000E-24
 -1.1990000E-03    1.0000000E-24
 -1.1985000E-03    1.0000000E-24
 -1.1980000E-03    1.0000000E-24
 -1.1975000E-03    1.0000000E-24
 -1.1970000E-03    1.0000000E-24
 -1.1965000E-03    1.0000000E-24
 -1.1960000E-03    1.0000001E-24
 -1.1955000E-03    1.0000001E-24
 -1.1950000E-03    1.0000001E-24
 -1.1945000E-03    1.0000001E-24
 -1.1940000E-03    1.0000001E-24
 -1.1935000E-03    1.0000001E-24
 -1.1930000E-03    1.0000001E-24
 -1.1925000E-03    1.0000001E-24
 -1.1920000E-03    1.0000001E-24
 -1.1915000E-03    1.0000001E-24
 -1.1910000E-03    1.0000001E-24
 -1.1905000E-03    1.0000001E-24
 -1.1900000E-03    1.0000001E-24
 -1.1895000E-03    1.0000001E-24
 -1.1890000E-03    1.0000001E-24
 -1.1885000E-03    1.0000001E-24
 -1.1880000E-03    1.0000001E-24
 -1.1875000E-03    1.0000001E-24
 -1.1870000E-03    1.0000002E-24
 -1.1865000E-03    1.0000002E-24
 -1.1860000E-03    1.0000002E-24
 -1.1854999E-03    1.0000002E-24
 -1.1849999E-03    1.0000002E-24
 -1.1845001E-03    1.0000002E-24
 -1.1840001E-03    1.0000002E-24
 -1.1835000E-03    1.0000002E-24
 -1.1830000E-03    1.0000002E-24
 -1.1825000E-03    1.0000002E-24
 -1.1820000E-03    1.0000002E-24
 -1.1815000E-03    1.0000001E-24
 -1.1810000E-03    1.0000001E-24
 -1.1805000E-03    1.0000001E-24
 -1.1800000E-03    1.0000001E-24
 -1.1795000E-03    1.0000001E-24
 -1.1790000E-03    1.0000001E-24
 -1.1785000E-03    1.0000001E-24
 -1.1780000E-03    1.0000001E-24
 -1.1775000E-03    1.0000001E-24
 -1.1770000E-03    1.0000001E-24
 -1.1765000E-03    1.0000001E-24
 -1.1760000E-03    1.0000001E-24
 -1.1755000E-03    1.0000001E-24
 -1.1750000E-03    1.0000001E-24
 -1.1745000E-03    1.0000001E-24
 -1.1740000E-03    1.0000001E-24
 -1.1735000E-03    1.0000001E-24
 -1.1730000E-03    1.0000001E-24
 -1.1725000E-03    1.0000001E-24
 -1.1720000E-03    1.0000001E-24
 -1.1715000E-03    1.0000001E-24
 -1.1710000E-03    1.0000001E-24
 -1.1704999E-03    1.0000001E-24
 -1.1699999E-03    1.0000001E-24
 -1.1695001E-03    1.0000001E-24
 -1.1690001E-03    1.0000001E-24
 -1.1685000E-03    1.0000001E-24
 -1.1680000E-03    1.0000001E-24
 -1.1675000E-03    1.0000001E-24
 -1.1670000E-03    1.0000001E-24
 -1.1665000E-03    1.0000001E-24
 -1.1660000E-03    1.0000001E-24
 -1.1655000E-03    1.0000001E-24
 -1.1650000E-03    1.0000001E-24
 -1.1645000E-03    1.0000001E-24
 -1.1640000E-03    1.0000001E-24
 -1.1635000E-03    1.0000001E-24
 -1.1630000E-03    1.0000001E-24
 -1.1625000E-03    1.0000001E-24
 -1.1620000E-03    1.0000001E-24
 -1.1615000E-03    1.0000001E-24
 -1.1610000E-03    1.0000002E-24
 -1.1605000E-03    1.0000003E-24
 -1.1600000E-03    1.0000003E-24
 -1.1595000E-03    1.0000003E-24
 -1.1590000E-03    1.0000003E-24
 -1.1585000E-03    1.0000003E-24
 -1.1580000E-03    1.0000003E-24
 -1.1575000E-03    1.0000003E-24
 -1.1570000E-03    1.0000003E-24
 -1.1565000E-03    1.0000003E-24
 -1.1560000E-03    1.0000003E-24
 -1.1555000E-03    1.0000003E-24
 -1.1549999E-03    1.0000003E-24
 -1.1544999E-03    1.0000003E-24
 -1.1540001E-03    1.0000002E-24
 -1.1535001E-03    1.0000001E-24
 -1.1530000E-03    1.0000000E-24
 -1.1525000E-03    9.9999992E-25
 -1.1520000E-03    9.9999992E-25
 -1.1515000E-03    9.9999992E-25
 -1.1510000E-03    9.9999992E-25
 -1.1505000E-03    9.9999992E-25
 -1.1500000E-03    9.9999992E-25
 -1.1495000E-03    9.9999992E-25
 -1.1490000E-03    9.9999992E-25
 -1.1485000E-03    9.9999992E-25
 -1.1480000E-03    1.0000001E-24
 -1.1475000E-03    1.0000005E-24
 -1.1470000E-03    1.0000011E-24
 -1.1465000E-03    1.0000022E-24
 -1.1460000E-03    1.0000038E-24
 -1.1455000E-03    1.0000060E-24
 -1.1450000E-03    1.0000091E-24
 -1.1445000E-03    1.0000129E-24
 -1.1440000E-03    1.0000175E-24
 -1.1435000E-03    1.0000222E-24
 -1.1430000E-03    1.0000264E-24
 -1.1425000E-03    1.0000289E-24
 -1.1420000E-03    1.0000276E-24
 -1.1415000E-03    1.0000200E-24
 -1.1410000E-03    1.0000027E-24
 -1.1405000E-03    9.9997123E-25
 -1.1399999E-03    9.9992084E-25
 -1.1394999E-03    9.9984649E-25
 -1.1390001E-03    9.9974374E-25
 -1.1385001E-03    9.9960993E-25
 -1.1380001E-03    9.9944614E-25
 -1.1375000E-03    9.9925898E-25
 -1.1370000E-03    9.9906404E-25
 -1.1365000E-03    9.9888851E-25
 -1.1360000E-03    9.9877512E-25
 -1.1355000E-03    9.9878517E-25
 -1.1350000E-03    9.9900014E-25
 -1.1345000E-03    9.9952276E-25
 -1.1340000E-03    1.0004728E-24
 -1.1335000E-03    1.0019804E-24
 -1.1330000E-03    1.0041704E-24
 -1.1325000E-03    1.0071414E-24
 -1.1320000E-03    1.0109329E-24
 -1.1315000E-03    1.0154842E-24
 -1.1310000E-03    1.0205820E-24
 -1.1305000E-03    1.0258017E-24
 -1.1300000E-03    1.0304455E-24
 -1.1295000E-03    1.0334841E-24
 -1.1290000E-03    1.0335152E-24
 -1.1285000E-03    1.0287518E-24
 -1.1280000E-03    1.0170598E-24
 -1.1275000E-03    9.9606656E-25
 -1.1270000E-03    9.6336285E-25
 -1.1265000E-03    9.1682134E-25
 -1.1260000E-03    8.5504821E-25
 -1.1255000E-03    7.7797487E-25
 -1.1250000E-03    6.8758324E-25
 -1.1244999E-03    5.8873222E-25
 -1.1239999E-03    4.9002639E-25
 -1.1235001E-03    4.0462904E-25
 -1.1230001E-03    3.5088309E-25
 -1.1225000E-03    3.5255927E-25
 -1.1220000E-03    4.3851279E-25
 -1.1215000E-03    6.4150193E-25
 -1.1210000E-03    9.9591214E-25
 -1.1205000E-03    1.5341512E-24
 -1.1200000E-03    2.2815415E-24
 -1.1195000E-03    3.2496470E-24
 -1.1190000E-03    4.4281496E-24
 -1.1185000E-03    5.7756218E-24
 -1.1180000E-03    7.2098439E-24
 -1.1175000E-03    8.5986762E-24
 -1.1170000E-03    9.7528641E-24
 -1.1165000E-03    1.0422560E-23
 -1.1160000E-03    1.0299641E-23
 -1.1155000E-03    9.0281494E-24
 -1.1150000E-03    6.2251582E-24
 -1.1145000E-03    1.5141277E-24
 -1.1140000E-03   -5.4278182E-24
 -1.1135000E-03   -1.4808339E-23
 -1.1130000E-03   -2.6645244E-23
 -1.1125000E-03   -4.0682040E-23
 -1.1120000E-03   -5.6299425E-23
 -1.1115000E-03   -7.2431435E-23
 -1.1110000E-03   -8.7497769E-23
 -1.1105000E-03   -9.9366996E-23
 -1.1100000E-03   -1.0536715E-22
 -1.1094999E-03   -1.0236199E-22
 -1.1089999E-03   -8.6910327E-23
 -1.1084999E-03   -5.5523609E-23
 -1.1080001E-03   -5.0315114E-24
 -1.1075001E-03    6.6943134E-23
 -1.1070000E-03    1.6141047E-22
 -1.1065000E-03    2.7736630E-22
 -1.1060000E-03    4.1111477E-22
 -1.1055000E-03    5.5562389E-22
 -1.1050000E-03    6.9999680E-22
 -1.1045000E-03    8.2915940E-22
 -1.1040000E-03    9.2387855E-22
 -1.1035000E-03    9.6123032E-22
 -1.1030000E-03    9.1563158E-22
 -1.1025000E-03    7.6053078E-22
 -1.1020000E-03    4.7081122E-22
 -1.1015000E-03    2.5910802E-23
 -1.1010000E-03   -5.8642067E-22
 -1.1005000E-03   -1.3658956E-21
 -1.1000000E-03   -2.2952731E-21
 -1.0995000E-03   -3.3361456E-21
 -1.0990000E-03   -4.4254381E-21
 -1.0985000E-03   -5.4732166E-21
 -1.0980000E-03   -6.3624810E-21
 -1.0975000E-03   -6.9516234E-21
 -1.0970000E-03   -7.0801846E-21
 -1.0965000E-03   -6.5784236E-21
 -1.0960000E-03   -5.2809678E-21
 -1.0955000E-03   -3.0445055E-21
 -1.0950000E-03    2.3095585E-22
 -1.0945000E-03    4.5782480E-21
 -1.0939999E-03    9.9381687E-21
 -1.0934999E-03    1.6135725E-20
 -1.0930001E-03    2.2860177E-20
 -1.0925001E-03    2.9652053E-20
 -1.0920000E-03    3.5900514E-20
 -1.0915000E-03    4.0854560E-20
 -1.0910000E-03    4.3651109E-20
 -1.0905000E-03    4.3362362E-20
 -1.0900000E-03    3.9063630E-20
 -1.0895000E-03    2.9921142E-20
 -1.0890000E-03    1.5297280E-20
 -1.0885000E-03   -5.1316985E-21
 -1.0880000E-03   -3.1253132E-20
 -1.0875000E-03   -6.2400825E-20
 -1.0870000E-03   -9.7256058E-20
 -1.0865000E-03   -1.3378111E-19
 -1.0860000E-03   -1.6920085E-19
 -1.0855000E-03   -2.0004760E-19
 -1.0850000E-03   -2.2228238E-19
 -1.0845000E-03   -2.3150262E-19
 -1.0840000E-03   -2.2324049E-19
 -1.0835000E-03   -1.9334869E-19
 -1.0830000E-03   -1.3846174E-19
 -1.0825000E-03   -5.6510317E-20
 -1.0820000E-03    5.2744429E-20
 -1.0815000E-03    1.8720064E-19
 -1.0810000E-03    3.4198229E-19
 -1.0805000E-03    5.0914202E-19
 -1.0800000E-03    6.7756303E-19
 -1.0795000E-03    8.3311874E-19
 -1.0790000E-03    9.5914322E-19
 -1.0784999E-03    1.0372467E-18
 -1.0779999E-03    1.0484904E-18
 -1.0775001E-03    9.7490432E-19
 -1.0770001E-03    8.0129751E-19
 -1.0765000E-03    5.1726949E-19
 -1.0760000E-03    1.1929498E-19
 -1.0755000E-03   -3.8728813E-19
 -1.0750000E-03   -9.8658545E-19
 -1.0745000E-03   -1.6509682E-18
 -1.0740000E-03   -2.3406376E-18
 -1.0735000E-03   -3.0041444E-18
 -1.0730000E-03   -3.5800410E-18
 -1.0725000E-03   -3.9997868E-18
 -1.0720000E-03   -4.1919400E-18
 -1.0715000E-03   -4.0875668E-18
 -1.0710000E-03   -3.6266737E-18
 -1.0705000E-03   -2.7653359E-18
 -1.0700000E-03   -1.4830584E-18
 -1.0695000E-03    2.1021240E-19
 -1.0690000E-03    2.2681133E-18
 -1.0685000E-03    4.6036679E-18
 -1.0680000E-03    7.0876218E-18
 -1.0675000E-03    9.5500061E-18
 -1.0670000E-03    1.1785492E-17
 -1.0665000E-03    1.3562898E-17
 -1.0660000E-03    1.4638931E-17
 -1.0655000E-03    1.4775884E-17
 -1.0650000E-03    1.3762610E-17
 -1.0645000E-03    1.1437714E-17
 -1.0640000E-03    7.7134104E-18
 -1.0634999E-03    2.5981942E-18
 -1.0629999E-03   -3.7838600E-18
 -1.0625001E-03   -1.1179496E-17
 -1.0620001E-03   -1.9200687E-17
 -1.0615001E-03   -2.7329177E-17
 -1.0610000E-03   -3.4932820E-17
 -1.0605000E-03   -4.1294726E-17
 -1.0600000E-03   -4.5655347E-17
 -1.0595000E-03   -4.7266553E-17
 -1.0590000E-03   -4.5455543E-17
 -1.0585000E-03   -3.9695157E-17
 -1.0580000E-03   -2.9676001E-17
 -1.0575000E-03   -1.5374632E-17
 -1.0570000E-03    2.8886667E-18
 -1.0565000E-03    2.4409403E-17
 -1.0560000E-03    4.8082461E-17
 -1.0555000E-03    7.2415818E-17
 -1.0550000E-03    9.5579105E-17
 -1.0545000E-03    1.1548963E-16
 -1.0540000E-03    1.2993595E-16
 -1.0535000E-03    1.3673577E-16
 -1.0530000E-03    1.3392161E-16
 -1.0525000E-03    1.1994388E-16
 -1.0520000E-03    9.3877595E-17
 -1.0515000E-03    5.5616283E-17
 -1.0510000E-03    6.0339864E-18
 -1.0505000E-03   -5.2904159E-17
 -1.0500000E-03   -1.1810191E-16
 -1.0495000E-03   -1.8537926E-16
 -1.0490000E-03   -2.4961979E-16
 -1.0485000E-03   -3.0502451E-16
 -1.0479999E-03   -3.4547080E-16
 -1.0474999E-03   -3.6496622E-16
 -1.0470001E-03   -3.5817611E-16
 -1.0465001E-03   -3.2099444E-16
 -1.0460000E-03   -2.5111729E-16
 -1.0455000E-03   -1.4857041E-16
 -1.0450000E-03   -1.6136762E-17
 -1.0445000E-03    1.4037153E-16
 -1.0440000E-03    3.1205003E-16
 -1.0435000E-03    4.8709297E-16
 -1.0430000E-03    6.5127003E-16
 -1.0425000E-03    7.8870356E-16
 -1.0420000E-03    8.8293423E-16
 -1.0415000E-03    9.1824025E-16
 -1.0410000E-03    8.8114143E-16
 -1.0405000E-03    7.6199412E-16
 -1.0400000E-03    5.5655284E-16
 -1.0395000E-03    2.6735616E-16
 -1.0390000E-03   -9.5220698E-17
 -1.0385000E-03   -5.1240406E-16
 -1.0380000E-03   -9.5709662E-16
 -1.0375000E-03   -1.3947075E-15
 -1.0370000E-03   -1.7848109E-15
 -1.0365000E-03   -2.0836502E-15
 -1.0360000E-03   -2.2474283E-15
 -1.0355000E-03   -2.2362468E-15
 -1.0350000E-03   -2.0184672E-15
 -1.0345000E-03   -1.5751857E-15
 -1.0340000E-03   -9.0443923E-16
 -1.0335000E-03   -2.4710911E-17
 -1.0329999E-03    1.0227278E-15
 -1.0324999E-03    2.1730819E-15
 -1.0319999E-03    3.3392965E-15
 -1.0315001E-03    4.4156107E-15
 -1.0310001E-03    5.2835400E-15
 -1.0305000E-03    5.8202344E-15
 -1.0300000E-03    5.9089323E-15
 -1.0295000E-03    5.4509835E-15
 -1.0290000E-03    4.3786525E-15
 -1.0285000E-03    2.6676968E-15
 -1.0280000E-03    3.4851464E-16
 -1.0275000E-03   -2.4854545E-15
 -1.0270000E-03   -5.6734114E-15
 -1.0265000E-03   -8.9881986E-15
 -1.0260000E-03   -1.2143623E-14
 -1.0255000E-03   -1.4808733E-14
 -1.0250000E-03   -1.6629168E-14
 -1.0245000E-03   -1.7255067E-14
 -1.0240000E-03   -1.6374363E-14
 -1.0235000E-03   -1.3749443E-14
 -1.0230000E-03   -9.2545947E-15
 -1.0225000E-03   -2.9108906E-15
 -1.0220000E-03    5.0851695E-15
 -1.0215000E-03    1.4343187E-14
 -1.0210000E-03    2.4274328E-14
 -1.0205000E-03    3.4103986E-14
 -1.0200000E-03    4.2904062E-14
 -1.0195000E-03    4.9645817E-14
 -1.0190000E-03    5.3272840E-14
 -1.0185000E-03    5.2791400E-14
 -1.0180000E-03    4.7373672E-14
 -1.0174999E-03    3.6466964E-14
 -1.0169999E-03    1.9900299E-14
 -1.0165001E-03   -2.0218177E-15
 -1.0160001E-03   -2.8449543E-14
 -1.0155000E-03   -5.7952815E-14
 -1.0150000E-03   -8.8531599E-14
 -1.0145000E-03   -1.1767934E-13
 -1.0140000E-03   -1.4250454E-13
 -1.0135000E-03   -1.5991092E-13
 -1.0130000E-03   -1.6683179E-13
 -1.0125000E-03   -1.6050822E-13
 -1.0120000E-03   -1.3879474E-13
 -1.0115000E-03   -1.0047075E-13
 -1.0110000E-03   -4.5530999E-14
 -1.0105000E-03    2.4574608E-14
 -1.0100000E-03    1.0678321E-13
 -1.0095000E-03    1.9637255E-13
 -1.0090000E-03    2.8705161E-13
 -1.0085000E-03    3.7120629E-13
 -1.0080000E-03    4.4030789E-13
 -1.0075000E-03    4.8547901E-13
 -1.0070000E-03    4.9819757E-13
 -1.0065000E-03    4.7110156E-13
 -1.0060000E-03    3.9884472E-13
 -1.0055000E-03    2.7893614E-13
 -1.0050000E-03    1.1248849E-13
 -1.0045000E-03   -9.5207174E-14
 -1.0040000E-03   -3.3436182E-13
 -1.0035000E-03   -5.9069806E-13
 -1.0030000E-03   -8.4584781E-13
 -1.0025000E-03   -1.0781732E-12
 -1.0019999E-03   -1.2640157E-12
 -1.0014999E-03   -1.3793414E-12
 -1.0010001E-03   -1.4017123E-12
 -1.0005001E-03   -1.3124697E-12
 -1.0000000E-03   -1.0989807E-12
 -9.9950004E-04   -7.5676623E-13
 -9.9900004E-04   -2.9130626E-13
 -9.9850004E-04    2.8068495E-13
 -9.9800003E-04    9.3071536E-13
 -9.9750003E-04    1.6188739E-12
 -9.9700002E-04    2.2952135E-12
 -9.9650002E-04    2.9022145E-12
 -9.9600002E-04    3.3782994E-12
 -9.9550001E-04    3.6622771E-12
 -9.9500001E-04    3.6984955E-12
 -9.9450001E-04    3.4423814E-12
 -9.9400000E-04    2.8659677E-12
 -9.9350000E-04    1.9629359E-12
 -9.9299999E-04    7.5267575E-13
 -9.9249999E-04   -7.1714265E-13
 -9.9199999E-04   -2.3699326E-12
 -9.9149998E-04   -4.1018560E-12
 -9.9099998E-04   -5.7860119E-12
 -9.9049998E-04   -7.2791981E-12
 -9.8999997E-04   -8.4310796E-12
 -9.8949997E-04   -9.0953807E-12
 -9.8899996E-04   -9.1424637E-12
 -9.8849996E-04   -8.4724935E-12
 -9.8799996E-04   -7.0281454E-12
 -9.8749995E-04   -4.8057647E-12
 -9.8699995E-04   -1.8637982E-12
 -9.8649994E-04    1.6725932E-12
 -9.8600006E-04    5.6116999E-12
 -9.8550005E-04    9.7008998E-12
 -9.8500005E-04    1.3638095E-11
 -9.8450005E-04    1.7088869E-11
 -9.8400004E-04    1.9708766E-11
 -9.8350004E-04    2.1169616E-11
 -9.8300003E-04    2.1188318E-11
 -9.8250003E-04    1.9556058E-11
 -9.8200003E-04    1.6165654E-11
 -9.8150002E-04    1.1034510E-11
 -9.8100002E-04    4.3206870E-12
 -9.8050002E-04   -3.6701532E-12
 -9.8000001E-04   -1.2488790E-11
 -9.7950001E-04   -2.1558614E-11
 -9.7900000E-04   -3.0204287E-11
 -9.7850000E-04   -3.7692200E-11
 -9.7800000E-04   -4.3281122E-11
 -9.7749999E-04   -4.6280157E-11
 -9.7699999E-04   -4.6110362E-11
 -9.7649998E-04   -4.2365545E-11
 -9.7599998E-04   -3.4867113E-11
 -9.7549998E-04   -2.3707833E-11
 -9.7499997E-04   -9.2795476E-12
 -9.7450003E-04    7.7194596E-12
 -9.7400002E-04    2.6300658E-11
 -9.7350002E-04    4.5226625E-11
 -9.7300002E-04    6.3077439E-11
 -9.7250001E-04    7.8339855E-11
 -9.7200001E-04    8.9514944E-11
 -9.7150001E-04    9.5237769E-11
 -9.7100000E-04    9.4401043E-11
 -9.7050000E-04    8.6273239E-11
 -9.6999999E-04    7.0601157E-11
 -9.6949999E-04    4.7686806E-11
 -9.6899999E-04    1.8429433E-11
 -9.6849998E-04   -1.5674658E-11
 -9.6799998E-04   -5.2579528E-11
 -9.6749997E-04   -8.9785790E-11
 -9.6700003E-04   -1.2448363E-10
 -9.6650003E-04   -1.5373645E-10
 -9.6600002E-04   -1.7469540E-10
 -9.6550002E-04   -1.8483069E-10
 -9.6500001E-04   -1.8216391E-10
 -9.6450001E-04   -1.6548241E-10
 -9.6400001E-04   -1.3451715E-10
 -9.6350000E-04   -9.0065906E-11
 -9.6300000E-04   -3.4046231E-11
 -9.6249999E-04    3.0533517E-11
 -9.6199999E-04    9.9691359E-11
 -9.6149999E-04    1.6867725E-10
 -9.6099998E-04    2.3225973E-10
 -9.6049998E-04    2.8507954E-10
 -9.5999998E-04    3.2204947E-10
 -9.5949997E-04    3.3877304E-10
 -9.5900003E-04    3.3195180E-10
 -9.5850002E-04    2.9974764E-10
 -9.5800002E-04    2.4206731E-10
 -9.5750001E-04    1.6073971E-10
 -9.5700001E-04    5.9561321E-11
 -9.5650001E-04   -5.5806002E-11
 -9.5600000E-04   -1.7809107E-10
 -9.5550000E-04   -2.9881739E-10
 -9.5500000E-04   -4.0883746E-10
 -9.5449999E-04   -4.9896748E-10
 -9.5399999E-04   -5.6068233E-10
 -9.5349998E-04   -5.8682226E-10
 -9.5299998E-04   -5.7225663E-10
 -9.5249998E-04   -5.1445104E-10
 -9.5199997E-04   -4.1388365E-10
 -9.5150003E-04   -2.7426739E-10
 -9.5100002E-04   -1.0254321E-10
 -9.5050002E-04    9.1373166E-11
 -9.5000002E-04    2.9509226E-10
 -9.4950001E-04    4.9448051E-10
 -9.4900001E-04    6.7458067E-10
 -9.4850000E-04    8.2066737E-10
 -9.4800000E-04    9.1936692E-10
 -9.4750000E-04    9.5975972E-10
 -9.4699999E-04    9.3438057E-10
 -9.4649999E-04    8.4003188E-10
 -9.4599999E-04    6.7833378E-10
 -9.4549998E-04    4.5595122E-10
 -9.4499998E-04    1.8445795E-10
 -9.4449997E-04   -1.2017787E-10
 -9.4400003E-04   -4.3847151E-10
 -9.4350002E-04   -7.4862072E-10
 -9.4300002E-04   -1.0279551E-09
 -9.4250002E-04   -1.2545422E-09
 -9.4200001E-04   -1.4088370E-09
 -9.4150001E-04   -1.4752539E-09
 -9.4100001E-04   -1.4435367E-09
 -9.4050000E-04   -1.3098126E-09
 -9.4000000E-04   -1.0772329E-09
 -9.3949999E-04   -7.5613082E-10
 -9.3899999E-04   -3.6365908E-10
 -9.3849999E-04    7.7090390E-11
 -9.3799998E-04    5.3844362E-10
 -9.3749998E-04    9.8989894E-10
 -9.3699998E-04    1.4001638E-09
 -9.3649997E-04    1.7393345E-09
 -9.3600003E-04    1.9810618E-09
 -9.3550002E-04    2.1045399E-09
 -9.3500002E-04    2.0961672E-09
 -9.3450001E-04    1.9507427E-09
 -9.3400001E-04    1.6720976E-09
 -9.3350001E-04    1.2731011E-09
 -9.3300000E-04    7.7502466E-10
 -9.3250000E-04    2.0630013E-10
 -9.3200000E-04   -3.9924886E-10
 -9.3149999E-04   -1.0045766E-09
 -9.3099999E-04   -1.5718323E-09
 -9.3049998E-04   -2.0648481E-09
 -9.2999998E-04   -2.4515152E-09
 -9.2949998E-04   -2.7058784E-09
 -9.2899997E-04   -2.8097926E-09
 -9.2850003E-04   -2.7540370E-09
 -9.2800002E-04   -2.5388052E-09
 -9.2750002E-04   -2.1735647E-09
 -9.2700002E-04   -1.6763108E-09
 -9.2650001E-04   -1.0722968E-09
 -9.2600001E-04   -3.9236589E-10
 -9.2550000E-04    3.2897601E-10
 -9.2500000E-04    1.0555774E-09
 -9.2450000E-04    1.7515960E-09
 -9.2399999E-04    2.3832483E-09
 -9.2349999E-04    2.9202487E-09
 -9.2299999E-04    3.3368714E-09
 -9.2249998E-04    3.6126169E-09
 -9.2199998E-04    3.7325130E-09
 -9.2149997E-04    3.6871237E-09
 -9.2100003E-04    3.4723668E-09
 -9.2050002E-04    3.0892615E-09
 -9.2000002E-04    2.5437219E-09
 -9.1950002E-04    1.8464971E-09
 -9.1900001E-04    1.0133180E-09
 -9.1850001E-04    6.5258049E-11
 -9.1800001E-04   -9.7073960E-10
 -9.1750000E-04   -2.0612803E-09
 -9.1700000E-04   -3.1660448E-09
 -9.1649999E-04   -4.2376298E-09
 -9.1599999E-04   -5.2219202E-09
 -9.1549999E-04   -6.0592056E-09
 -9.1499998E-04   -6.6862049E-09
 -9.1449998E-04   -7.0390946E-09
 -9.1399997E-04   -7.0575359E-09
 -9.1349997E-04   -6.6895702E-09
 -9.1300003E-04   -5.8971295E-09
 -9.1250002E-04   -4.6617701E-09
 -9.1200002E-04   -2.9901370E-09
 -9.1150001E-04   -9.1857694E-10
 -9.1100001E-04    1.4837063E-09
 -9.1050001E-04    4.1135459E-09
 -9.1000000E-04    6.8352599E-09
 -9.0950000E-04    9.4850092E-09
 -9.0899999E-04    1.1878214E-08
 -9.0849999E-04    1.3819932E-08
 -9.0799999E-04    1.5117800E-08
 -9.0749998E-04    1.5596877E-08
 -9.0699998E-04    1.5115408E-08
 -9.0649998E-04    1.3580384E-08
 -9.0599997E-04    1.0961514E-08
 -9.0550003E-04    7.3022699E-09
 -9.0500002E-04    2.7266642E-09
 -9.0450002E-04   -2.5593709E-09
 -9.0400001E-04   -8.2728357E-09
 -9.0350001E-04   -1.4065167E-08
 -9.0300001E-04   -1.9540289E-08
 -9.0250000E-04   -2.4278599E-08
 -9.0200000E-04   -2.7865633E-08
 -9.0150000E-04   -2.9923729E-08
 -9.0099999E-04   -3.0144459E-08
 -9.0049999E-04   -2.8319349E-08
 -8.9999998E-04   -2.4366289E-08
 -8.9949998E-04   -1.8349054E-08
 -8.9899998E-04   -1.0487683E-08
 -8.9849997E-04   -1.1579345E-09
 -8.9800003E-04    9.1211927E-09
 -8.9750002E-04    1.9712132E-08
 -8.9700002E-04    2.9894831E-08
 -8.9650002E-04    3.8912489E-08
 -8.9600001E-04    4.6024340E-08
 -8.9550001E-04    5.0561962E-08
 -8.9500000E-04    5.1985054E-08
 -8.9450000E-04    4.9932385E-08
 -8.9400000E-04    4.4263459E-08
 -8.9349999E-04    3.5086988E-08
 -8.9299999E-04    2.2772888E-08
 -8.9249999E-04    7.9455402E-09
 -8.9199998E-04   -8.5425782E-09
 -8.9149998E-04   -2.5656361E-08
 -8.9099997E-04   -4.2240590E-08
 -8.9050003E-04   -5.7095903E-08
 -8.9000002E-04   -6.9063347E-08
 -8.8950002E-04   -7.7111700E-08
 -8.8900002E-04   -8.0421010E-08
 -8.8850001E-04   -7.8455741E-08
 -8.8800001E-04   -7.1021439E-08
 -8.8750001E-04   -5.8299360E-08
 -8.8700000E-04   -4.0855369E-08
 -8.8650000E-04   -1.9620787E-08
 -8.8599999E-04    4.1548089E-09
 -8.8549999E-04    2.8976798E-08
 -8.8499999E-04    5.3200534E-08
 -8.8449998E-04    7.5142019E-08
 -8.8399998E-04    9.3196668E-08
 -8.8349998E-04    1.0595745E-07
 -8.8299997E-04    1.1232356E-07
 -8.8250003E-04    1.1159093E-07
 -8.8200002E-04    1.0351712E-07
 -8.8150002E-04    8.8354682E-08
 -8.8100001E-04    6.6849530E-08
 -8.8050001E-04    4.0203116E-08
 -8.8000001E-04    1.0000515E-08
 -8.7950000E-04   -2.1891266E-08
 -8.7900000E-04   -5.3447625E-08
 -8.7850000E-04   -8.2624453E-08
 -8.7799999E-04   -1.0749967E-07
 -8.7749999E-04   -1.2640758E-07
 -8.7699998E-04   -1.3805567E-07
 -8.7649998E-04   -1.4161476E-07
 -8.7599998E-04   -1.3677558E-07
 -8.7549997E-04   -1.2376738E-07
 -8.7500003E-04   -1.0333711E-07
 -8.7450002E-04   -7.6691578E-08
 -8.7400002E-04   -4.5406949E-08
 -8.7350002E-04   -1.1313890E-08
 -8.7300001E-04    2.3632309E-08
 -8.7250001E-04    5.7485519E-08
 -8.7200000E-04    8.8435471E-08
 -8.7150000E-04    1.1491715E-07
 -8.7100000E-04    1.3569429E-07
 -8.7049999E-04    1.4991124E-07
 -8.6999999E-04    1.5711046E-07
 -8.6949999E-04    1.5721629E-07
 -8.6899998E-04    1.5048937E-07
 -8.6849998E-04    1.3745863E-07
 -8.6799997E-04    1.1884018E-07
 -8.6750003E-04    9.5454148E-08
 -8.6700002E-04    6.8149582E-08
 -8.6650002E-04    3.7747725E-08
 -8.6600002E-04    5.0105249E-09
 -8.6550001E-04   -2.9361232E-08
 -8.6500001E-04   -6.4700075E-08
 -8.6450001E-04   -1.0031834E-07
 -8.6400000E-04   -1.3543713E-07
 -8.6350000E-04   -1.6910934E-07
 -8.6299999E-04   -2.0015051E-07
 -8.6249999E-04   -2.2709261E-07
 -8.6199999E-04   -2.4817470E-07
 -8.6149998E-04   -2.6138204E-07
 -8.6099998E-04   -2.6454111E-07
 -8.6049997E-04   -2.5547206E-07
 -8.5999997E-04   -2.3219350E-07
 -8.5950003E-04   -1.9316802E-07
 -8.5900002E-04   -1.3756890E-07
 -8.5850002E-04   -6.5543915E-08
 -8.5800001E-04    2.1552683E-08
 -8.5750001E-04    1.2099032E-07
 -8.5700001E-04    2.2858345E-07
 -8.5650000E-04    3.3872908E-07
 -8.5600000E-04    4.4457846E-07
 -8.5549999E-04    5.3834987E-07
 -8.5499999E-04    6.1177900E-07
 -8.5449999E-04    6.5668848E-07
 -8.5399998E-04    6.6564564E-07
 -8.5349998E-04    6.3266521E-07
 -8.5299998E-04    5.5390228E-07
 -8.5249997E-04    4.2827685E-07
 -8.5200003E-04    2.5796567E-07
 -8.5150002E-04    4.8704219E-08
 -8.5100002E-04   -1.9015334E-07
 -8.5050002E-04   -4.4585212E-07
 -8.5000001E-04   -7.0275019E-07
 -8.4950001E-04   -9.4312406E-07
 -8.4900000E-04   -1.1482359E-06
 -8.4850000E-04   -1.2996111E-06
 -8.4800000E-04   -1.3804454E-06
 -8.4749999E-04   -1.3770509E-06
 -8.4699999E-04   -1.2802266E-06
 -8.4649998E-04   -1.0864424E-06
 -8.4599998E-04   -7.9872279E-07
 -8.4549998E-04   -4.2713037E-07
 -8.4499997E-04    1.1229082E-08
 -8.4450003E-04    4.9272796E-07
 -8.4400002E-04    9.8827854E-07
 -8.4350002E-04    1.4649047E-06
 -8.4300002E-04    1.8877562E-06
 -8.4250001E-04    2.2224517E-06
 -8.4200001E-04    2.4376063E-06
 -8.4150000E-04    2.5073700E-06
 -8.4100000E-04    2.4137889E-06
 -8.4050000E-04    2.1487970E-06
 -8.3999999E-04    1.7156564E-06
 -8.3949999E-04    1.1297004E-06
 -8.3899999E-04    4.1825723E-07
 -8.3849998E-04   -3.8029910E-07
 -8.3799998E-04   -1.2183738E-06
 -8.3749997E-04   -2.0417856E-06
 -8.3700003E-04   -2.7930814E-06
 -8.3650002E-04   -3.4153388E-06
 -8.3600002E-04   -3.8562175E-06
 -8.3550002E-04   -4.0719824E-06
 -8.3500001E-04   -4.0312057E-06
 -8.3450001E-04   -3.7178593E-06
 -8.3400001E-04   -3.1335298E-06
 -8.3350000E-04   -2.2985373E-06
 -8.3300000E-04   -1.2518078E-06
 -8.3249999E-04   -4.9424933E-08
 -8.3199999E-04    1.2381222E-06
 -8.3149999E-04    2.5298789E-06
 -8.3099998E-04    3.7393459E-06
 -8.3049998E-04    4.7800945E-06
 -8.2999998E-04    5.5717173E-06
 -8.2949997E-04    6.0457146E-06
 -8.2900003E-04    6.1509008E-06
 -8.2850002E-04    5.8579194E-06
 -8.2800002E-04    5.1625052E-06
 -8.2750001E-04    4.0871951E-06
 -8.2700001E-04    2.6812857E-06
 -8.2650001E-04    1.0189528E-06
 -8.2600000E-04   -8.0443289E-07
 -8.2550000E-04   -2.6776297E-06
 -8.2500000E-04   -4.4801941E-06
 -8.2449999E-04   -6.0901089E-06
 -8.2399999E-04   -7.3918786E-06
 -8.2349998E-04   -8.2845709E-06
 -8.2299998E-04   -8.6892387E-06
 -8.2249998E-04   -8.5552065E-06
 -8.2199997E-04   -7.8647208E-06
 -8.2150003E-04   -6.6356101E-06
 -8.2100002E-04   -4.9216674E-06
 -8.2050002E-04   -2.8106640E-06
 -8.2000002E-04   -4.2001935E-07
 -8.1950001E-04    2.1096575E-06
 -8.1900001E-04    4.6228047E-06
 -8.1850000E-04    6.9584371E-06
 -8.1800000E-04    8.9603700E-06
 -8.1750000E-04    1.0487499E-05
 -8.1699999E-04    1.1423442E-05
 -8.1649999E-04    1.1684903E-05
 -8.1599999E-04    1.1228170E-05
 -8.1549998E-04    1.0053254E-05
 -8.1499998E-04    8.2053657E-06
 -8.1449997E-04    5.7735324E-06
 -8.1400003E-04    2.8863942E-06
 -8.1350002E-04   -2.9463231E-07
 -8.1300002E-04   -3.5844400E-06
 -8.1250002E-04   -6.7850451E-06
 -8.1200001E-04   -9.6974736E-06
 -8.1150001E-04   -1.2134004E-05
 -8.1100001E-04   -1.3929997E-05
 -8.1050000E-04   -1.4954576E-05
 -8.1000000E-04   -1.5119467E-05
 -8.0949999E-04   -1.4385444E-05
 -8.0899999E-04   -1.2765924E-05
 -8.0849999E-04   -1.0327473E-05
 -8.0799998E-04   -7.1871495E-06
 -8.0749998E-04   -3.5067847E-06
 -8.0699997E-04    5.1546095E-07
 -8.0649997E-04    4.6558303E-06
 -8.0600003E-04    8.6773643E-06
 -8.0550002E-04    1.2343267E-05
 -8.0500002E-04    1.5430482E-05
 -8.0450001E-04    1.7742692E-05
 -8.0400001E-04    1.9122044E-05
 -8.0350001E-04    1.9458885E-05
 -8.0300000E-04    1.8698993E-05
 -8.0250000E-04    1.6847896E-05
 -8.0200000E-04    1.3971977E-05
 -8.0149999E-04    1.0196338E-05
 -8.0099999E-04    5.6994741E-06
 -8.0049998E-04    7.0501727E-07
 -7.9999998E-04   -4.5290572E-06
 -7.9949998E-04   -9.7232323E-06
 -7.9899997E-04   -1.4590653E-05
 -7.9850003E-04   -1.8852035E-05
 -7.9800002E-04   -2.2250566E-05
 -7.9750002E-04   -2.4566063E-05
 -7.9700002E-04   -2.5627696E-05
 -7.9650001E-04   -2.5324653E-05
 -7.9600001E-04   -2.3614126E-05
 -7.9550000E-04   -2.0526246E-05
 -7.9500000E-04   -1.6165548E-05
 -7.9450000E-04   -1.0708821E-05
 -7.9399999E-04   -4.3992686E-06
 -7.9349999E-04    2.4628991E-06
 -7.9299998E-04    9.5331870E-06
 -7.9249998E-04    1.6438418E-05
 -7.9199998E-04    2.2794622E-05
 -7.9149997E-04    2.8226512E-05
 -7.9100003E-04    3.2387677E-05
 -7.9050002E-04    3.4980552E-05
 -7.9000002E-04    3.5775149E-05
 -7.8950002E-04    3.4625526E-05
 -7.8900001E-04    3.1482941E-05
 -7.8850001E-04    2.6404814E-05
 -7.8800000E-04    1.9558605E-05
 -7.8750000E-04    1.1220069E-05
 -7.8700000E-04    1.7654635E-06
 -7.8649999E-04   -8.3423465E-06
 -7.8599999E-04   -1.8573646E-05
 -7.8549999E-04   -2.8356886E-05
 -7.8499998E-04   -3.7107988E-05
 -7.8449998E-04   -4.4262630E-05
 -7.8399997E-04   -4.9309943E-05
 -7.8350003E-04   -5.1825722E-05
 -7.8300002E-04   -5.1503241E-05
 -7.8250002E-04   -4.8179558E-05
 -7.8200002E-04   -4.1855455E-05
 -7.8150001E-04   -3.2707219E-05
 -7.8100001E-04   -2.1088892E-05
 -7.8050001E-04   -7.5240832E-06
 -7.8000000E-04    7.3130464E-06
 -7.7950000E-04    2.2627331E-05
 -7.7899999E-04    3.7541708E-05
 -7.7849999E-04    5.1144230E-05
 -7.7799999E-04    6.2540727E-05
 -7.7749998E-04    7.0910231E-05
 -7.7699998E-04    7.5559954E-05
 -7.7649998E-04    7.5976342E-05
 -7.7599997E-04    7.1868715E-05
 -7.7550003E-04    6.3202155E-05
 -7.7500002E-04    5.0216870E-05
 -7.7450002E-04    3.3431708E-05
 -7.7400001E-04    1.3630579E-05
 -7.7350001E-04   -8.1686003E-06
 -7.7300001E-04   -3.0761716E-05
 -7.7250000E-04   -5.2821106E-05
 -7.7200000E-04   -7.2970048E-05
 -7.7150000E-04   -8.9865192E-05
 -7.7099999E-04   -1.0228212E-04
 -7.7049999E-04   -1.0919890E-04
 -7.6999998E-04   -1.0987207E-04
 -7.6949998E-04   -1.0389974E-04
 -7.6899998E-04   -9.1267037E-05
 -7.6849997E-04   -7.2369818E-05
 -7.6800003E-04   -4.8013913E-05
 -7.6750002E-04   -1.9388366E-05
 -7.6700002E-04    1.1987025E-05
 -7.6650002E-04    4.4338081E-05
 -7.6600001E-04    7.5733005E-05
 -7.6550001E-04    1.0419446E-04
 -7.6500000E-04    1.2782068E-04
 -7.6450000E-04    1.4490835E-04
 -7.6400000E-04    1.5406957E-04
 -7.6349999E-04    1.5433486E-04
 -7.6299999E-04    1.4523540E-04
 -7.6249999E-04    1.2685749E-04
 -7.6199998E-04    9.9865108E-05
 -7.6149998E-04    6.5486878E-05
 -7.6099997E-04    2.5466959E-05
 -7.6050003E-04   -1.8018945E-05
 -7.6000002E-04   -6.2478750E-05
 -7.5950002E-04   -1.0524439E-04
 -7.5900002E-04   -1.4362979E-04
 -7.5850001E-04   -1.7509706E-04
 -7.5800001E-04   -1.9742074E-04
 -7.5750001E-04   -2.0883975E-04
 -7.5700000E-04   -2.0818660E-04
 -7.5650000E-04   -1.9498503E-04
 -7.5599999E-04   -1.6950820E-04
 -7.5549999E-04   -1.3279272E-04
 -7.5499999E-04   -8.6605134E-05
 -7.5449998E-04   -3.3361805E-05
 -7.5399998E-04    2.3994975E-05
 -7.5349997E-04    8.2158367E-05
 -7.5299997E-04    1.3764706E-04
 -7.5250003E-04    1.8701320E-04
 -7.5200002E-04    2.2705560E-04
 -7.5150002E-04    2.5502531E-04
 -7.5100001E-04    2.6881011E-04
 -7.5050001E-04    2.6708582E-04
 -7.5000001E-04    2.4942396E-04
 -7.4950000E-04    2.1634743E-04
 -7.4900000E-04    1.6932926E-04
 -7.4850000E-04    1.1073281E-04
 -7.4799999E-04    4.3695287E-05
 -7.4749999E-04   -2.8039873E-05
 -7.4699998E-04   -1.0033262E-04
 -7.4649998E-04   -1.6888627E-04
 -7.4599998E-04   -2.2950370E-04