 -1.2000001E-03    1.0000000E-24
 -1.1995001E-03    1.0000000E-24
 -1.1990000E-03    1.0000000E-24
 -1.1985000E-03    1.0000000E-24
 -1.1980000E-03    1.0000000E-24
 -1.1975000E-03    1.0000000E-24
 -1.1970000E-03    1.0000000E-24
 -1.1965000E-03    1.0000000E-24
 -1.1960000E-03    1.0000001E-24
 -1.1955000E-03    1.0000001E-24
 -1.1950000E-03    1.0000001E-24
 -1.1945000E-03    1.0000001E-24
 -1.1940000E-03    1.0000001E-24
 -1.1935000E-03    1.0000001E-24
 -1.1930000E-03    1.0000001E-24
 -1.1925000E-03    1.0000001E-24
 -1.1920000E-03    1.0000001E-24
 -1.1915000E-03    1.0000001E-24
 -1.1910000E-03    1.0000001E-24
 -1.1905000E-03    1.0000001E-24
 -1.1900000E-03    1.0000001E-24
 -1.1895000E-03    1.0000001E-24
 -1.1890000E-03    1.0000001E-24
 -1.1885000E-03    1.0000001E-24
 -1.1880000E-03    1.0000001E-24
 -1.1875000E-03    1.0000001E-24
 -1.1870000E-03    1.0000002E-24
 -1.1865000E-03    1.0000002E-24
 -1.1860000E-03    1.0000002E-24
 -1.1854999E-03    1.0000002E-24
 -1.1849999E-03    1.0000002E-24
 -1.1845001E-03    1.0000002E-24
 -1.1840001E-03    1.0000002E-24
 -1.1835000E-03    1.0000002E-24
 -1.1830000E-03    1.0000002E-24
 -1.1825000E-03    1.0000002E-24
 -1.1820000E-03    1.0000002E-24
 -1.1815000E-03    1.0000001E-24
 -1.1810000E-03    1.0000001E-24
 -1.1805000E-03    1.0000001E-24
 -1.1800000E-03    1.0000001E-24
 -1.1795000E-03    1.0000001E-24
 -1.1790000E-03    1.0000001E-24
 -1.1785000E-03    1.0000001E-24
 -1.1780000E-03    1.0000001E-24
 -1.1775000E-03    1.0000001E-24
 -1.1770000E-03    1.0000001E-24
 -1.1765000E-03    1.0000001E-24
 -1.1760000E-03    1.0000001E-24
 -1.1755000E-03    1.0000001E-24
 -1.1750000E-03    1.0000001E-24
 -1.1745000E-03    1.0000001E-24
 -1.1740000E-03    1.0000001E-24
 -1.1735000E-03    1.0000001E-24
 -1.1730000E-03    1.0000001E-24
 -1.1725000E-03    1.0000002E-24
 -1.1720000E-03    1.0000003E-24
 -1.1715000E-03    1.0000004E-24
 -1.1710000E-03    1.0000005E-24
 -1.1704999E-03    1.0000006E-24
 -1.1699999E-03    1.0000007E-24
 -1.1695001E-03    1.0000007E-24
 -1.1690001E-03    1.0000007E-24
 -1.1685000E-03    1.0000007E-24
 -1.1680000E-03    1.0000007E-24
 -1.1675000E-03    1.0000006E-24
 -1.1670000E-03    1.0000005E-24
 -1.1665000E-03    1.0000004E-24
 -1.1660000E-03    1.0000003E-24
 -1.1655000E-03    1.0000002E-24
 -1.1650000E-03    1.0000001E-24
 -1.1645000E-03    1.0000000E-24
 -1.1640000E-03    9.9999992E-25
 -1.1635000E-03    9.9999982E-25
 -1.1630000E-03    9.9999972E-25
 -1.1625000E-03    9.9999972E-25
 -1.1620000E-03    9.9999972E-25
 -1.1615000E-03    9.9999972E-25
 -1.1610000E-03    9.9999972E-25
 -1.1605000E-03    9.9999972E-25
 -1.1600000E-03    9.9999972E-25
 -1.1595000E-03    9.9999963E-25
 -1.1590000E-03    9.9999943E-25
 -1.1585000E-03    9.9999933E-25
 -1.1580000E-03    9.9999933E-25
 -1.1575000E-03    9.9999923E-25
 -1.1570000E-03    9.9999972E-25
 -1.1565000E-03    1.0000003E-24
 -1.1560000E-03    1.0000010E-24
 -1.1555000E-03    1.0000008E-24
 -1.1549999E-03    1.0000010E-24
 -1.1544999E-03    9.9999963E-25
 -1.1540001E-03    9.9999815E-25
 -1.1535001E-03    9.9999608E-25
 -1.1530000E-03    9.9999302E-25
 -1.1525000E-03    9.9999045E-25
 -1.1520000E-03    9.9998533E-25
 -1.1515000E-03    9.9997458E-25
 -1.1510000E-03    9.9997231E-25
 -1.1505000E-03    9.9996206E-25
 -1.1500000E-03    9.9997527E-25
 -1.1495000E-03    1.0000318E-24
 -1.1490000E-03    1.0000855E-24
 -1.1485000E-03    1.0001936E-24
 -1.1480000E-03    1.0002974E-24
 -1.1475000E-03    1.0004069E-24
 -1.1470000E-03    1.0005088E-24
 -1.1465000E-03    1.0006070E-24
 -1.1460000E-03    1.0007768E-24
 -1.1455000E-03    1.0009615E-24
 -1.1450000E-03    1.0008527E-24
 -1.1445000E-03    1.0005631E-24
 -1.1440000E-03    1.0003186E-24
 -1.1435000E-03    9.9987844E-25
 -1.1430000E-03    9.9966416E-25
 -1.1425000E-03    1.0000221E-24
 -1.1420000E-03    9.9991324E-25
 -1.1415000E-03    1.0005573E-24
 -1.1410000E-03    1.0011260E-24
 -1.1405000E-03    1.0021164E-24
 -1.1399999E-03    1.0034682E-24
 -1.1394999E-03    1.0039768E-24
 -1.1390001E-03    1.0015941E-24
 -1.1385001E-03    9.9644078E-25
 -1.1380001E-03    9.9273293E-25
 -1.1375000E-03    9.8950708E-25
 -1.1370000E-03    9.8917231E-25
 -1.1365000E-03    9.8474177E-25
 -1.1360000E-03    9.9115314E-25
 -1.1355000E-03    9.9660092E-25
 -1.1350000E-03    1.0028920E-24
 -1.1345000E-03    1.0060511E-24
 -1.1340000E-03    1.0202928E-24
 -1.1335000E-03    1.0653738E-24
 -1.1330000E-03    1.1200922E-24
 -1.1325000E-03    1.1671007E-24
 -1.1320000E-03    1.2565137E-24
 -1.1315000E-03    1.3170145E-24
 -1.1310000E-03    1.3640233E-24
 -1.1305000E-03    1.2799642E-24
 -1.1300000E-03    1.3462473E-24
 -1.1295000E-03    1.4038572E-24
 -1.1290000E-03    1.5349503E-24
 -1.1285000E-03    1.6101459E-24
 -1.1280000E-03    1.6005305E-24
 -1.1275000E-03    1.5909141E-24
 -1.1270000E-03    1.6661058E-24
 -1.1265000E-03    1.7721380E-24
 -1.1260000E-03    2.2019825E-24
 -1.1255000E-03    2.5547304E-24
 -1.1250000E-03    2.4294701E-24
 -1.1244999E-03    1.2710954E-24
 -1.1239999E-03   -2.1109018E-25
 -1.1235001E-03   -2.0016693E-24
 -1.1230001E-03   -4.0543928E-24
 -1.1225000E-03   -6.1871031E-24
 -1.1220000E-03   -8.5356825E-24
 -1.1215000E-03   -1.1161806E-23
 -1.1210000E-03   -1.2554357E-23
 -1.1205000E-03   -1.2836676E-23
 -1.1200000E-03   -1.2008785E-23
 -1.1195000E-03   -8.9604722E-24
 -1.1190000E-03    8.7248391E-25
 -1.1185000E-03    1.2679135E-23
 -1.1180000E-03    2.7569710E-23
 -1.1175000E-03    4.1966813E-23
 -1.1170000E-03    5.5377038E-23
 -1.1165000E-03    6.7954561E-23
 -1.1160000E-03    7.3099764E-23
 -1.1155000E-03    6.7882920E-23
 -1.1150000E-03    4.7616556E-23
 -1.1145000E-03    2.1429113E-23
 -1.1140000E-03   -2.1534958E-23
 -1.1135000E-03   -7.3380687E-23
 -1.1130000E-03   -1.2522627E-22
 -1.1125000E-03   -1.8151257E-22
 -1.1120000E-03   -2.6345723E-22
 -1.1115000E-03   -3.3059888E-22
 -1.1110000E-03   -3.9033895E-22
 -1.1105000E-03   -4.3922367E-22
 -1.1100000E-03   -4.5270468E-22
 -1.1094999E-03   -4.2819168E-22
 -1.1089999E-03   -3.4841492E-22
 -1.1084999E-03   -2.0251872E-22
 -1.1080001E-03   -6.0570286E-23
 -1.1075001E-03    1.5835316E-22
 -1.1070000E-03    4.1872484E-22
 -1.1065000E-03    6.8106989E-22
 -1.1060000E-03    8.9012409E-22
 -1.1055000E-03    1.0577305E-21
 -1.1050000E-03    1.2075732E-21
 -1.1045000E-03    1.3919552E-21
 -1.1040000E-03    1.4042540E-21
 -1.1035000E-03    1.3356305E-21
 -1.1030000E-03    1.1367423E-21
 -1.1025000E-03    8.7864272E-22
 -1.1020000E-03    5.1396234E-22
 -1.1015000E-03    1.4928319E-22
 -1.1010000E-03   -1.8020130E-23
 -1.1005000E-03   -3.7479865E-22
 -1.1000000E-03   -7.4736475E-22
 -1.0995000E-03   -1.0488757E-21
 -1.0990000E-03   -1.1569619E-21
 -1.0985000E-03   -1.1347826E-21
 -1.0980000E-03   -1.0237891E-21
 -1.0975000E-03   -4.6279170E-22
 -1.0970000E-03   -2.8865142E-22
 -1.0965000E-03    6.1181280E-22
 -1.0960000E-03    2.0807015E-21
 -1.0955000E-03    4.1811759E-21
 -1.0950000E-03    6.3763815E-21
 -1.0945000E-03    8.6189538E-21
 -1.0939999E-03    1.1019421E-20
 -1.0934999E-03    1.3530428E-20
 -1.0930001E-03    1.5591435E-20
 -1.0925001E-03    1.5524776E-20
 -1.0920000E-03    1.2979138E-20
 -1.0915000E-03    8.6966369E-21
 -1.0910000E-03    2.0456805E-21
 -1.0905000E-03   -7.3526833E-21
 -1.0900000E-03   -1.8140538E-20
 -1.0895000E-03   -2.9307342E-20
 -1.0890000E-03   -4.0284668E-20
 -1.0885000E-03   -4.9493541E-20
 -1.0880000E-03   -5.5860263E-20
 -1.0875000E-03   -5.6732182E-20
 -1.0870000E-03   -5.0609256E-20
 -1.0865000E-03   -3.9323103E-20
 -1.0860000E-03   -2.1563175E-20
 -1.0855000E-03    4.8495406E-21
 -1.0850000E-03    3.5872852E-20
 -1.0845000E-03    6.7527736E-20
 -1.0840000E-03    9.6782568E-20
 -1.0835000E-03    1.1921623E-19
 -1.0830000E-03    1.3343923E-19
 -1.0825000E-03    1.3616728E-19
 -1.0820000E-03    1.2891625E-19
 -1.0815000E-03    1.1114929E-19
 -1.0810000E-03    8.1382177E-20
 -1.0805000E-03    3.6330619E-20
 -1.0800000E-03   -1.6173646E-20
 -1.0795000E-03   -7.1962115E-20
 -1.0790000E-03   -1.3431902E-19
 -1.0784999E-03   -2.0551814E-19
 -1.0779999E-03   -2.6383277E-19
 -1.0775001E-03   -3.1583152E-19
 -1.0770001E-03   -3.4862993E-19
 -1.0765000E-03   -3.5250157E-19
 -1.0760000E-03   -3.3115713E-19
 -1.0755000E-03   -2.9414951E-19
 -1.0750000E-03   -2.3238368E-19
 -1.0745000E-03   -1.5343884E-19
 -1.0740000E-03   -7.7020635E-20
 -1.0735000E-03    1.8597852E-20
 -1.0730000E-03    1.0916350E-19
 -1.0725000E-03    2.1337150E-19
 -1.0720000E-03    2.9736848E-19
 -1.0715000E-03    3.6064935E-19
 -1.0710000E-03    4.0523519E-19
 -1.0705000E-03    4.3602117E-19
 -1.0700000E-03    4.5594428E-19
 -1.0695000E-03    4.3595127E-19
 -1.0690000E-03    3.5633643E-19
 -1.0685000E-03    2.3225797E-19
 -1.0680000E-03    8.1358407E-21
 -1.0675000E-03   -2.8672427E-19
 -1.0670000E-03   -6.0381589E-19
 -1.0665000E-03   -8.9362255E-19
 -1.0660000E-03   -1.1773659E-18
 -1.0655000E-03   -1.4247291E-18
 -1.0650000E-03   -1.6078598E-18
 -1.0645000E-03   -1.6525462E-18
 -1.0640000E-03   -1.5537356E-18
 -1.0634999E-03   -1.2386692E-18
 -1.0629999E-03   -6.9117811E-19
 -1.0625001E-03    5.8420419E-20
 -1.0620001E-03    8.9290280E-19
 -1.0615001E-03    1.8082282E-18
 -1.0610000E-03    2.7437635E-18
 -1.0605000E-03    3.6065381E-18
 -1.0600000E-03    4.3702781E-18
 -1.0595000E-03    4.8571289E-18
 -1.0590000E-03    4.9973629E-18
 -1.0585000E-03    4.7212529E-18
 -1.0580000E-03    3.9115762E-18
 -1.0575000E-03    2.9927649E-18
 -1.0570000E-03    1.6899489E-18
 -1.0565000E-03    2.3340979E-20
 -1.0560000E-03   -1.4734916E-18
 -1.0555000E-03   -3.0026588E-18
 -1.0550000E-03   -4.7015958E-18
 -1.0545000E-03   -6.3277720E-18
 -1.0540000E-03   -7.8569345E-18
 -1.0535000E-03   -9.0869769E-18
 -1.0530000E-03   -9.8582335E-18
 -1.0525000E-03   -1.0018241E-17
 -1.0520000E-03   -9.9963553E-18
 -1.0515000E-03   -9.2468842E-18
 -1.0510000E-03   -7.7051510E-18
 -1.0505000E-03   -5.3873252E-18
 -1.0500000E-03   -2.6652888E-18
 -1.0495000E-03    1.7800747E-19
 -1.0490000E-03    2.9727941E-18
 -1.0485000E-03    6.1556283E-18
 -1.0479999E-03    9.4678133E-18
 -1.0474999E-03    1.2456628E-17
 -1.0470001E-03    1.4022601E-17
 -1.0465001E-03    1.4230413E-17
 -1.0460000E-03    1.3080069E-17
 -1.0455000E-03    1.0167352E-17
 -1.0450000E-03    5.2012248E-18
 -1.0445000E-03   -1.3655844E-18
 -1.0440000E-03   -8.8489424E-18
 -1.0435000E-03   -1.8935466E-17
 -1.0430000E-03   -2.9216013E-17
 -1.0425000E-03   -3.7232935E-17
 -1.0420000E-03   -4.3115592E-17
 -1.0415000E-03   -4.5893866E-17
 -1.0410000E-03   -4.5179732E-17
 -1.0405000E-03   -3.7868785E-17
 -1.0400000E-03   -2.3637665E-17
 -1.0395000E-03   -2.8097495E-18
 -1.0390000E-03    2.0863828E-17
 -1.0385000E-03    5.2751111E-17
 -1.0380000E-03    8.1922022E-17
 -1.0375000E-03    1.1151330E-16
 -1.0370000E-03    1.3947152E-16
 -1.0365000E-03    1.5973345E-16
 -1.0360000E-03    1.6499082E-16
 -1.0355000E-03    1.6429809E-16
 -1.0350000E-03    1.5248134E-16
 -1.0345000E-03    1.3135138E-16
 -1.0340000E-03    1.0556487E-16
 -1.0335000E-03    6.3739018E-17
 -1.0329999E-03    1.0013016E-17
 -1.0324999E-03   -4.9662961E-17
 -1.0319999E-03   -1.0908016E-16
 -1.0315001E-03   -1.7470602E-16
 -1.0310001E-03   -2.3690408E-16
 -1.0305000E-03   -2.8552035E-16
 -1.0300000E-03   -2.9791869E-16
 -1.0295000E-03   -2.7047718E-16
 -1.0290000E-03   -2.0836981E-16
 -1.0285000E-03   -1.3487962E-16
 -1.0280000E-03   -5.4145771E-17
 -1.0275000E-03    1.7274764E-17
 -1.0270000E-03    7.4207968E-17
 -1.0265000E-03    1.3321063E-16
 -1.0260000E-03    2.0256115E-16
 -1.0255000E-03    2.8639846E-16
 -1.0250000E-03    4.0102089E-16
 -1.0245000E-03    4.6623134E-16
 -1.0240000E-03    5.2005880E-16
 -1.0235000E-03    5.7181648E-16
 -1.0230000E-03    5.7597319E-16
 -1.0225000E-03    5.7185137E-16
 -1.0220000E-03    5.5738145E-16
 -1.0215000E-03    5.8223377E-16
 -1.0210000E-03    5.3878956E-16
 -1.0205000E-03    4.1670077E-16
 -1.0200000E-03    2.7391635E-16
 -1.0195000E-03    1.1250604E-16
 -1.0190000E-03   -3.0794703E-17
 -1.0185000E-03   -2.0979565E-16
 -1.0180000E-03   -3.0394239E-16
 -1.0174999E-03   -3.6497509E-16
 -1.0169999E-03   -3.0597032E-16
 -1.0165001E-03   -2.3040818E-16
 -1.0160001E-03   -3.8948507E-17
 -1.0155000E-03    2.5185164E-16
 -1.0150000E-03    5.7576525E-16
 -1.0145000E-03    7.8378076E-16
 -1.0140000E-03    8.6761971E-16
 -1.0135000E-03    1.0425208E-15
 -1.0130000E-03    1.2432916E-15
 -1.0125000E-03    1.5640985E-15
 -1.0120000E-03    1.8435132E-15
 -1.0115000E-03    2.0649774E-15
 -1.0110000E-03    2.2450483E-15
 -1.0105000E-03    2.5492937E-15
 -1.0100000E-03    3.0191060E-15
 -1.0095000E-03    3.4392473E-15
 -1.0090000E-03    3.8593887E-15
 -1.0085000E-03    4.2133032E-15
 -1.0080000E-03    4.4016495E-15
 -1.0075000E-03    4.3085313E-15
 -1.0070000E-03    4.1388401E-15
 -1.0065000E-03    3.6049011E-15
 -1.0060000E-03    2.7729413E-15
 -1.0055000E-03    1.9409834E-15
 -1.0050000E-03    8.1100498E-16
 -1.0045000E-03   -5.5076607E-16
 -1.0040000E-03   -2.4754656E-15
 -1.0035000E-03   -4.9299799E-15
 -1.0030000E-03   -7.2520352E-15
 -1.0025000E-03   -9.4747496E-15
 -1.0019999E-03   -1.1117974E-14
 -1.0014999E-03   -1.1718121E-14
 -1.0010001E-03   -1.1668416E-14
 -1.0005001E-03   -1.0484576E-14
 -1.0000000E-03   -7.9430870E-15
 -9.9950004E-04   -3.6797000E-15
 -9.9900004E-04    1.9082244E-15
 -9.9850004E-04    8.4895444E-15
 -9.9800003E-04    1.6163606E-14
 -9.9750003E-04    2.3638980E-14
 -9.9700002E-04    3.1081237E-14
 -9.9650002E-04    3.8490377E-14
 -9.9600002E-04    4.4343174E-14
 -9.9550001E-04    4.6983959E-14
 -9.9500001E-04    4.6752143E-14
 -9.9450001E-04    4.3167598E-14
 -9.9400000E-04    3.5427309E-14
 -9.9350000E-04    2.4309454E-14
 -9.9299999E-04    1.0939896E-14
 -9.9249999E-04   -4.4164522E-15
 -9.9199999E-04   -2.1229785E-14
 -9.9149998E-04   -3.8572922E-14
 -9.9099998E-04   -5.5717366E-14
 -9.9049998E-04   -7.0212716E-14
 -9.8999997E-04   -8.0800662E-14
 -9.8949997E-04   -8.4931472E-14
 -9.8899996E-04   -8.3317088E-14
 -9.8849996E-04   -7.3267035E-14
 -9.8799996E-04   -5.4640598E-14
 -9.8749995E-04   -3.1643206E-14
 -9.8699995E-04   -5.5331805E-15
 -9.8649994E-04    2.0643026E-14
 -9.8600006E-04    4.7216557E-14
 -9.8550005E-04    7.1140962E-14
 -9.8500005E-04    9.2151371E-14
 -9.8450005E-04    1.1011532E-13
 -9.8400004E-04    1.2178767E-13
 -9.8350004E-04    1.2796321E-13
 -9.8300003E-04    1.2783065E-13
 -9.8250003E-04    1.2181219E-13
 -9.8200003E-04    1.1029694E-13
 -9.8150002E-04    9.1960341E-14
 -9.8100002E-04    6.6934875E-14
 -9.8050002E-04    3.9922635E-14
 -9.8000001E-04    1.2645550E-14
 -9.7950001E-04   -1.2114862E-14
 -9.7900000E-04   -3.4623522E-14
 -9.7850000E-04   -5.1304176E-14
 -9.7800000E-04   -6.5401989E-14
 -9.7749999E-04   -7.5393745E-14
 -9.7699999E-04   -8.1213248E-14
 -9.7649998E-04   -8.1484217E-14
 -9.7599998E-04   -7.8973733E-14
 -9.7549998E-04   -7.2026132E-14
 -9.7499997E-04   -6.3158049E-14
 -9.7450003E-04   -5.2833053E-14
 -9.7400002E-04   -4.4097592E-14
 -9.7350002E-04   -3.3242913E-14
 -9.7300002E-04   -2.0931272E-14
 -9.7250001E-04   -7.6924542E-15
 -9.7200001E-04    7.4007564E-15
 -9.7150001E-04    2.2030455E-14
 -9.7100000E-04    3.7719888E-14
 -9.7050000E-04    4.8475509E-14
 -9.6999999E-04    5.3937212E-14
 -9.6949999E-04    5.3239934E-14
 -9.6899999E-04    5.1350698E-14
 -9.6849998E-04    5.0852379E-14
 -9.6799998E-04    4.9691893E-14
 -9.6749997E-04    3.7802691E-14
 -9.6700003E-04    2.3595595E-14
 -9.6650003E-04    6.2096083E-15
 -9.6600002E-04   -1.4487799E-14
 -9.6550002E-04   -3.4125639E-14
 -9.6500001E-04   -4.8200535E-14
 -9.6450001E-04   -5.4858174E-14
 -9.6400001E-04   -5.0124936E-14
 -9.6350000E-04   -3.0159658E-14
 -9.6300000E-04   -6.5791966E-16
 -9.6249999E-04    4.4605683E-14
 -9.6199999E-04    1.1371091E-13
 -9.6149999E-04    1.9109441E-13
 -9.6099998E-04    2.7086195E-13
 -9.6049998E-04    3.5210300E-13
 -9.5999998E-04    4.3460236E-13
 -9.5949997E-04    5.0571082E-13
 -9.5900003E-04    5.6489850E-13
 -9.5850002E-04    5.9759554E-13
 -9.5800002E-04    5.9294068E-13
 -9.5750001E-04    5.4643063E-13
 -9.5700001E-04    4.5594604E-13
 -9.5650001E-04    3.1512916E-13
 -9.5600000E-04    1.3669555E-13
 -9.5550000E-04   -7.1672452E-14
 -9.5500000E-04   -2.7898056E-13
 -9.5449999E-04   -5.1013035E-13
 -9.5399999E-04   -7.2652800E-13
 -9.5349998E-04   -9.2199794E-13
 -9.5299998E-04   -1.0575985E-12
 -9.5249998E-04   -1.1174355E-12
 -9.5199997E-04   -1.0893229E-12
 -9.5150003E-04   -9.8703641E-13
 -9.5100002E-04   -7.9044301E-13
 -9.5050002E-04   -5.2179506E-13
 -9.5000002E-04   -1.8215219E-13
 -9.4950001E-04    2.0729286E-13
 -9.4900001E-04    6.3117556E-13
 -9.4850000E-04    1.0555877E-12
 -9.4800000E-04    1.5071527E-12
 -9.4750000E-04    1.9078554E-12
 -9.4699999E-04    2.2338539E-12
 -9.4649999E-04    2.4623665E-12
 -9.4599999E-04    2.5679621E-12
 -9.4549998E-04    2.5400443E-12
 -9.4499998E-04    2.3298707E-12
 -9.4449997E-04    1.9416792E-12
 -9.4400003E-04    1.3691128E-12
 -9.4350002E-04    6.6091409E-13
 -9.4300002E-04   -1.3311398E-13
 -9.4250002E-04   -9.5893042E-13
 -9.4200001E-04   -1.6785180E-12
 -9.4150001E-04   -2.2659162E-12
 -9.4100001E-04   -2.6901307E-12
 -9.4050000E-04   -2.8642724E-12
 -9.4000000E-04   -2.7395980E-12
 -9.3949999E-04   -2.3394201E-12
 -9.3899999E-04   -1.6467849E-12
 -9.3849999E-04   -7.2527054E-13
 -9.3799998E-04    3.7426052E-13
 -9.3749998E-04    1.6136617E-12
 -9.3699998E-04    2.9569056E-12
 -9.3649997E-04    4.2153780E-12
 -9.3600003E-04    5.3927882E-12
 -9.3550002E-04    6.3341645E-12
 -9.3500002E-04    6.9597704E-12
 -9.3450001E-04    7.2823223E-12
 -9.3400001E-04    7.1216813E-12
 -9.3350001E-04    6.5117577E-12
 -9.3300000E-04    5.3720184E-12
 -9.3250000E-04    3.7618029E-12
 -9.3200000E-04    1.7743595E-12
 -9.3149999E-04   -5.8607340E-13
 -9.3099999E-04   -3.1965784E-12
 -9.3049998E-04   -5.8431094E-12
 -9.2999998E-04   -8.3900343E-12
 -9.2949998E-04   -1.0505158E-11
 -9.2899997E-04   -1.1967545E-11
 -9.2850003E-04   -1.2522886E-11
 -9.2800002E-04   -1.2277145E-11
 -9.2750002E-04   -1.1226085E-11
 -9.2700002E-04   -9.4036116E-12
 -9.2650001E-04   -6.9877468E-12
 -9.2600001E-04   -3.9106726E-12
 -9.2550000E-04   -4.7756352E-13
 -9.2500000E-04    3.2607185E-12
 -9.2450000E-04    7.1727789E-12
 -9.2399999E-04    1.0786021E-11
 -9.2349999E-04    1.3852690E-11
 -9.2299999E-04    1.6243312E-11
 -9.2249998E-04    1.7858283E-11
 -9.2199998E-04    1.8430577E-11
 -9.2149997E-04    1.8011053E-11
 -9.2100003E-04    1.6430175E-11
 -9.2050002E-04    1.3637078E-11
 -9.2000002E-04    9.8775961E-12
 -9.1950002E-04    5.2788876E-12
 -9.1900001E-04    8.6787233E-14
 -9.1850001E-04   -5.3130000E-12
 -9.1800001E-04   -1.0481786E-11
 -9.1750000E-04   -1.5048301E-11
 -9.1700000E-04   -1.8627239E-11
 -9.1649999E-04   -2.1040579E-11
 -9.1599999E-04   -2.1872948E-11
 -9.1549999E-04   -2.1459190E-11
 -9.1499998E-04   -1.9366977E-11
 -9.1449998E-04   -1.6155795E-11
 -9.1399997E-04   -1.1868031E-11
 -9.1349997E-04   -6.6817025E-12
 -9.1300003E-04   -1.0460930E-12
 -9.1250002E-04    4.5216964E-12
 -9.1200002E-04    9.5130423E-12
 -9.1150001E-04    1.3634429E-11
 -9.1100001E-04    1.6471539E-11
 -9.1050001E-04    1.7553898E-11
 -9.1000000E-04    1.6618717E-11
 -9.0950000E-04    1.3852495E-11
 -9.0899999E-04    9.2043690E-12
 -9.0849999E-04    3.5983430E-12
 -9.0799999E-04   -2.8892902E-12
 -9.0749998E-04   -9.9618343E-12
 -9.0699998E-04   -1.6741912E-11
 -9.0649998E-04   -2.2877726E-11
 -9.0599997E-04   -2.7951780E-11
 -9.0550003E-04   -3.1590557E-11
 -9.0500002E-04   -3.3526501E-11
 -9.0450002E-04   -3.3519076E-11
 -9.0400001E-04   -3.1422056E-11
 -9.0350001E-04   -2.7718640E-11
 -9.0300001E-04   -2.2374916E-11
 -9.0250000E-04   -1.5607052E-11
 -9.0200000E-04   -7.8304290E-12
 -9.0150000E-04    2.4711805E-13
 -9.0099999E-04    8.2780310E-12
 -9.0049999E-04    1.6609871E-11
 -8.9999998E-04    2.4316519E-11
 -8.9949998E-04    3.1010149E-11
 -8.9899998E-04    3.6379236E-11
 -8.9849997E-04    4.0171585E-11
 -8.9800003E-04    4.2571054E-11
 -8.9750002E-04    4.2803042E-11
 -8.9700002E-04    4.1099089E-11
 -8.9650002E-04    3.6770170E-11
 -8.9600001E-04    3.0583452E-11
 -8.9550001E-04    2.3445598E-11
 -8.9500000E-04    1.5208381E-11
 -8.9450000E-04    6.8302438E-12
 -8.9400000E-04   -2.7685861E-12
 -8.9349999E-04   -1.2570861E-11
 -8.9299999E-04   -2.1771260E-11
 -8.9249999E-04   -2.9780633E-11
 -8.9199998E-04   -3.6298044E-11
 -8.9149998E-04   -4.1374359E-11
 -8.9099997E-04   -4.3966907E-11
 -8.9050003E-04   -4.3846798E-11
 -8.9000002E-04   -4.0691912E-11
 -8.8950002E-04   -3.4129255E-11
 -8.8900002E-04   -2.5235416E-11
 -8.8850001E-04   -1.5324342E-11
 -8.8800001E-04   -4.7054422E-12
 -8.8750001E-04    5.7439097E-12
 -8.8700000E-04    1.5379458E-11
 -8.8650000E-04    2.3734974E-11
 -8.8599999E-04    3.0412037E-11
 -8.8549999E-04    3.6190540E-11
 -8.8499999E-04    3.9781973E-11
 -8.8449998E-04    4.1796688E-11
 -8.8399998E-04    4.2285543E-11
 -8.8349998E-04    4.1045094E-11
 -8.8299997E-04    3.6498599E-11
 -8.8250003E-04    2.8391742E-11
 -8.8200002E-04    1.7690908E-11
 -8.8150002E-04    4.5868292E-12
 -8.8100001E-04   -1.0585660E-11
 -8.8050001E-04   -2.7707885E-11
 -8.8000001E-04   -4.5440464E-11
 -8.7950000E-04   -6.2020160E-11
 -8.7900000E-04   -7.6667103E-11
 -8.7850000E-04   -8.7957135E-11
 -8.7799999E-04   -9.4194839E-11
 -8.7749999E-04   -9.4193431E-11
 -8.7699998E-04   -8.6732205E-11
 -8.7649998E-04   -7.1268630E-11
 -8.7599998E-04   -4.8023110E-11
 -8.7549997E-04   -2.1641090E-11
 -8.7500003E-04    4.2004998E-12
 -8.7450002E-04    2.9991225E-11
 -8.7400002E-04    5.2289399E-11
 -8.7350002E-04    6.8043272E-11
 -8.7300001E-04    7.4438455E-11
 -8.7250001E-04    7.2763469E-11
 -8.7200000E-04    6.2001064E-11
 -8.7150000E-04    3.9777667E-11
 -8.7100000E-04    6.3645430E-12
 -8.7049999E-04   -3.5491735E-11
 -8.6999999E-04   -8.4265282E-11
 -8.6949999E-04   -1.3512416E-10
 -8.6899998E-04   -1.8618435E-10
 -8.6849998E-04   -2.3275167E-10
 -8.6799997E-04   -2.7267294E-10
 -8.6750003E-04   -2.9933606E-10
 -8.6700002E-04   -3.1162203E-10
 -8.6650002E-04   -3.0885275E-10
 -8.6600002E-04   -2.8628100E-10
 -8.6550001E-04   -2.4648389E-10
 -8.6500001E-04   -1.9156365E-10
 -8.6450001E-04   -1.2470774E-10
 -8.6400000E-04   -5.2223094E-11
 -8.6350000E-04    2.2397735E-11
 -8.6299999E-04    9.4606781E-11
 -8.6249999E-04    1.5859303E-10
 -8.6199999E-04    2.0603200E-10
 -8.6149998E-04    2.3909380E-10
 -8.6099998E-04    2.5106461E-10
 -8.6049997E-04    2.4452151E-10
 -8.5999997E-04    2.1756565E-10
 -8.5950003E-04    1.7101083E-10
 -8.5900002E-04    1.1082493E-10
 -8.5850002E-04    4.2840204E-11
 -8.5800001E-04   -2.7077210E-11
 -8.5750001E-04   -9.5197412E-11
 -8.5700001E-04   -1.5291617E-10
 -8.5650000E-04   -1.9703764E-10
 -8.5600000E-04   -2.3169865E-10
 -8.5549999E-04   -2.5028710E-10
 -8.5499999E-04   -2.4988692E-10
 -8.5449999E-04   -2.3368549E-10
 -8.5399998E-04   -2.0364956E-10
 -8.5349998E-04   -1.6059290E-10
 -8.5299998E-04   -1.0295576E-10
 -8.5249997E-04   -3.8197980E-11
 -8.5200003E-04    3.0018332E-11
 -8.5150002E-04    9.3283915E-11
 -8.5100002E-04    1.5193785E-10
 -8.5050002E-04    2.0044467E-10
 -8.5000001E-04    2.3033575E-10
 -8.4950001E-04    2.4727384E-10
 -8.4900000E-04    2.4997043E-10
 -8.4850000E-04    2.4642799E-10
 -8.4800000E-04    2.2905104E-10
 -8.4749999E-04    2.0713049E-10
 -8.4699999E-04    1.8127672E-10
 -8.4649998E-04    1.4925175E-10
 -8.4599998E-04    1.1108953E-10
 -8.4549998E-04    6.7027398E-11
 -8.4499997E-04    1.6183700E-11
 -8.4450003E-04   -3.9411314E-11
 -8.4400002E-04   -9.3158280E-11
 -8.4350002E-04   -1.4307359E-10
 -8.4300002E-04   -1.8607166E-10
 -8.4250001E-04   -2.2510253E-10
 -8.4200001E-04   -2.5738575E-10
 -8.4150000E-04   -2.7841152E-10
 -8.4100000E-04   -2.8702704E-10
 -8.4050000E-04   -2.8096039E-10
 -8.3999999E-04   -2.6169511E-10
 -8.3949999E-04   -2.2498205E-10
 -8.3899999E-04   -1.7237461E-10
 -8.3849998E-04   -1.0233839E-10
 -8.3799998E-04   -1.7857304E-11
 -8.3749997E-04    6.7624031E-11
 -8.3700003E-04    1.6103148E-10
 -8.3650002E-04    2.4127830E-10
 -8.3600002E-04    3.0680902E-10
 -8.3550002E-04    3.4968914E-10
 -8.3500001E-04    3.5889847E-10
 -8.3450001E-04    3.3962502E-10
 -8.3400001E-04    2.9193672E-10
 -8.3350000E-04    2.1095067E-10
 -8.3300000E-04    9.7548525E-11
 -8.3249999E-04   -4.4472058E-11
 -8.3199999E-04   -2.1043178E-10
 -8.3149999E-04   -3.8263054E-10
 -8.3099998E-04   -5.4792892E-10
 -8.3049998E-04   -6.9603590E-10
 -8.2999998E-04   -7.9517931E-10
 -8.2949997E-04   -8.5309038E-10
 -8.2900003E-04   -8.3721724E-10
 -8.2850002E-04   -7.6668416E-10
 -8.2800002E-04   -6.3810041E-10
 -8.2750001E-04   -4.5322907E-10
 -8.2700001E-04   -2.0949323E-10
 -8.2650001E-04    7.4525483E-11
 -8.2600000E-04    3.7671885E-10
 -8.2550000E-04    6.7782702E-10
 -8.2500000E-04    9.5892716E-10
 -8.2449999E-04    1.1873340E-09
 -8.2399999E-04    1.3599954E-09
 -8.2349998E-04    1.4260495E-09
 -8.2299998E-04    1.3968892E-09
 -8.2249998E-04    1.2787538E-09
 -8.2199997E-04    1.0884618E-09
 -8.2150003E-04    8.1896034E-10
 -8.2100002E-04    4.9656218E-10
 -8.2050002E-04    1.3238927E-10
 -8.2000002E-04   -2.4087085E-10
 -8.1950001E-04   -5.9704103E-10
 -8.1900001E-04   -9.1570856E-10
 -8.1850000E-04   -1.1704250E-09
 -8.1800000E-04   -1.3429478E-09
 -8.1750000E-04   -1.3980124E-09
 -8.1699999E-04   -1.3356189E-09
 -8.1649999E-04   -1.1668895E-09
 -8.1599999E-04   -8.8856889E-10
 -8.1549998E-04   -5.7552663E-10
 -8.1499998E-04   -2.1311433E-10
 -8.1449997E-04    1.7316898E-10
 -8.1400003E-04    5.5402666E-10
 -8.1350002E-04    9.0233215E-10
 -8.1300002E-04    1.1753611E-09
 -8.1250002E-04    1.3535487E-09
 -8.1200001E-04    1.4340805E-09
 -8.1150001E-04    1.4161431E-09
 -8.1100001E-04    1.2902419E-09
 -8.1050000E-04    1.0677704E-09
 -8.1000000E-04    7.5306883E-10
 -8.0949999E-04    3.5807293E-10
 -8.0899999E-04   -7.7069739E-11
 -8.0849999E-04   -5.2469024E-10
 -8.0799998E-04   -9.6471464E-10
 -8.0749998E-04   -1.3285130E-09
 -8.0699997E-04   -1.6177127E-09
 -8.0649997E-04   -1.8167842E-09
 -8.0600003E-04   -1.9051791E-09
 -8.0550002E-04   -1.8671642E-09
 -8.0500002E-04   -1.7266107E-09
 -8.0450001E-04   -1.4607328E-09
 -8.0400001E-04   -1.0944868E-09
 -8.0350001E-04   -6.4848921E-10
 -8.0300000E-04   -1.4661133E-10
 -8.0250000E-04    3.6991418E-10
 -8.0200000E-04    9.2170382E-10
 -8.0149999E-04    1.4485365E-09
 -8.0099999E-04    1.9053819E-09
 -8.0049998E-04    2.2708102E-09
 -7.9999998E-04    2.5361411E-09
 -7.9949998E-04    2.6850988E-09
 -7.9899997E-04    2.7103593E-09
 -7.9850003E-04    2.6157203E-09
 -7.9800002E-04    2.3843634E-09
 -7.9750002E-04    2.0184590E-09
 -7.9700002E-04    1.5364531E-09
 -7.9650001E-04    9.8608877E-10
 -7.9600001E-04    4.0263040E-10
 -7.9550000E-04   -1.9764594E-10
 -7.9500000E-04   -7.4258338E-10
 -7.9450000E-04   -1.2137360E-09
 -7.9399999E-04   -1.5750253E-09
 -7.9349999E-04   -1.8335047E-09
 -7.9299998E-04   -1.9525532E-09
 -7.9249998E-04   -1.9262032E-09
 -7.9199998E-04   -1.7783263E-09
 -7.9149997E-04   -1.5610058E-09
 -7.9100003E-04   -1.2861776E-09
 -7.9050002E-04   -9.9398900E-10
 -7.9000002E-04   -6.2476146E-10
 -7.8950002E-04   -2.4359875E-10
 -7.8900001E-04    6.4321326E-11
 -7.8850001E-04    3.5053976E-10
 -7.8800000E-04    5.6432975E-10
 -7.8750000E-04    6.8856798E-10
 -7.8700000E-04    6.9833206E-10
 -7.8649999E-04    6.0501526E-10
 -7.8599999E-04    4.0156495E-10
 -7.8549999E-04    8.0928278E-11
 -7.8499998E-04   -3.5906483E-10
 -7.8449998E-04   -9.3035002E-10
 -7.8399997E-04   -1.5331014E-09
 -7.8350003E-04   -2.1618933E-09
 -7.8300002E-04   -2.7971947E-09
 -7.8250002E-04   -3.3880079E-09
 -7.8200002E-04   -3.8594634E-09
 -7.8150001E-04   -4.1768398E-09
 -7.8100001E-04   -4.3366102E-09
 -7.8050001E-04   -4.3101083E-09
 -7.8000000E-04   -4.0375681E-09
 -7.7950000E-04   -3.5480154E-09
 -7.7899999E-04   -2.8685776E-09
 -7.7849999E-04   -2.0274658E-09
 -7.7799999E-04   -1.0626579E-09
 -7.7749998E-04   -4.9023039E-11
 -7.7699998E-04    9.4616459E-10
 -7.7649998E-04    1.8393550E-09
 -7.7599997E-04    2.6348888E-09
 -7.7550003E-04    3.2915337E-09
 -7.7500002E-04    3.6986134E-09
 -7.7450002E-04    3.9293702E-09
 -7.7400001E-04    3.9838040E-09
 -7.7350001E-04    3.8361447E-09
 -7.7300001E-04    3.4858845E-09
 -7.7250000E-04    2.9348883E-09
 -7.7200000E-04    2.1820710E-09
 -7.7150000E-04    1.2957917E-09
 -7.7099999E-04    2.6845520E-10
 -7.7049999E-04   -8.2615426E-10
 -7.6999998E-04   -1.9912920E-09
 -7.6949998E-04   -3.0338163E-09
 -7.6899998E-04   -4.0665742E-09
 -7.6849997E-04   -4.9550182E-09
 -7.6800003E-04   -5.6622560E-09
 -7.6750002E-04   -6.1438006E-09
 -7.6700002E-04   -6.3822911E-09
 -7.6650002E-04   -6.2941776E-09
 -7.6600001E-04   -5.8398553E-09
 -7.6550001E-04   -5.0030664E-09
 -7.6500000E-04   -3.8375028E-09
 -7.6450000E-04   -2.4174933E-09
 -7.6400000E-04   -8.1410884E-10
 -7.6349999E-04    7.6865830E-10
 -7.6299999E-04    2.2787252E-09
 -7.6249999E-04    3.5392260E-09
 -7.6199998E-04    4.4242938E-09
 -7.6149998E-04    4.8384434E-09
 -7.6099997E-04    4.7534634E-09
 -7.6050003E-04    4.0868882E-09
 -7.6000002E-04    2.9266103E-09
 -7.5950002E-04    1.2878195E-09
 -7.5900002E-04   -6.7486172E-10
 -7.5850001E-04   -2.8467555E-09
 -7.5800001E-04   -5.0132223E-09
 -7.5750001E-04   -7.0277784E-09
 -7.5700000E-04   -8.6321785E-09
 -7.5650000E-04   -9.6441326E-09
 -7.5599999E-04   -9.9290922E-09
 -7.5549999E-04   -9.5087591E-09
 -7.5499999E-04   -8.2898186E-09
 -7.5449998E-04   -6.4155010E-09
 -7.5399998E-04   -3.9661003E-09
 -7.5349997E-04   -1.1369282E-09
 -7.5299997E-04    1.8864683E-09
 -7.5250003E-04    4.8512696E-09
 -7.5200002E-04    7.5382918E-09
 -7.5150002E-04    9.6274420E-09
 -7.5100001E-04    1.1129571E-08
 -7.5050001E-04    1.1852622E-08
 -7.5000001E-04    1.1729322E-08
 -7.4950000E-04    1.0564359E-08
 -7.4900000E-04    8.5270040E-09
 -7.4850000E-04    5.9167360E-09
 -7.4799999E-04    2.8420621E-09
 -7.4749999E-04   -4.4528231E-10
 -7.4699998E-04   -3.6393091E-09
 -7.4649998E-04   -6.5013035E-09
 -7.4599998E-04   -8.8120826E-09