 -1.2000001E-03    1.0000000E-24
 -1.1995001E-03    1.0000000E-24
 -1.1990000E-03    1.0000000E-24
 -1.1985000E-03    1.0000000E-24
 -1.1980000E-03    1.0000000E-24
 -1.1975000E-03    1.0000000E-24
 -1.1970000E-03    1.0000000E-24
 -1.1965000E-03    1.0000000E-24
 -1.1960000E-03    1.0000001E-24
 -1.1955000E-03    1.0000001E-24
 -1.1950000E-03    1.0000001E-24
 -1.1945000E-03    1.0000001E-24
 -1.1940000E-03    1.0000001E-24
 -1.1935000E-03    1.0000001E-24
 -1.1930000E-03    1.0000001E-24
 -1.1925000E-03    1.0000001E-24
 -1.1920000E-03    1.0000001E-24
 -1.1915000E-03    1.0000001E-24
 -1.1910000E-03    1.0000001E-24
 -1.1905000E-03    1.0000001E-24
 -1.1900000E-03    1.0000001E-24
 -1.1895000E-03    1.0000001E-24
 -1.1890000E-03    1.0000001E-24
 -1.1885000E-03    1.0000001E-24
 -1.1880000E-03    1.0000001E-24
 -1.1875000E-03    1.0000001E-24
 -1.1870000E-03    1.0000002E-24
 -1.1865000E-03    1.0000002E-24
 -1.1860000E-03    1.0000002E-24
 -1.1854999E-03    1.0000002E-24
 -1.1849999E-03    1.0000002E-24
 -1.1845001E-03    1.0000002E-24
 -1.1840001E-03    1.0000002E-24
 -1.1835000E-03    1.0000002E-24
 -1.1830000E-03    1.0000002E-24
 -1.1825000E-03    1.0000002E-24
 -1.1820000E-03    1.0000002E-24
 -1.1815000E-03    1.0000001E-24
 -1.1810000E-03    1.0000001E-24
 -1.1805000E-03    1.0000001E-24
 -1.1800000E-03    1.0000001E-24
 -1.1795000E-03    1.0000001E-24
 -1.1790000E-03    1.0000001E-24
 -1.1785000E-03    1.0000001E-24
 -1.1780000E-03    1.0000001E-24
 -1.1775000E-03    1.0000001E-24
 -1.1770000E-03    1.0000001E-24
 -1.1765000E-03    1.0000001E-24
 -1.1760000E-03    1.0000001E-24
 -1.1755000E-03    1.0000001E-24
 -1.1750000E-03    1.0000001E-24
 -1.1745000E-03    1.0000001E-24
 -1.1740000E-03    1.0000000E-24
 -1.1735000E-03    9.9999972E-25
 -1.1730000E-03    9.9999913E-25
 -1.1725000E-03    9.9999795E-25
 -1.1720000E-03    9.9999558E-25
 -1.1715000E-03    9.9999134E-25
 -1.1710000E-03    9.9998414E-25
 -1.1704999E-03    9.9997231E-25
 -1.1699999E-03    9.9995367E-25
 -1.1695001E-03    9.9992577E-25
 -1.1690001E-03    9.9988603E-25
 -1.1685000E-03    9.9983298E-25
 -1.1680000E-03    9.9976780E-25
 -1.1675000E-03    9.9969759E-25
 -1.1670000E-03    9.9964040E-25
 -1.1665000E-03    9.9963271E-25
 -1.1660000E-03    9.9973999E-25
 -1.1655000E-03    1.0000704E-24
 -1.1650000E-03    1.0007910E-24
 -1.1645000E-03    1.0021451E-24
 -1.1640000E-03    1.0044658E-24
 -1.1635000E-03    1.0081795E-24
 -1.1630000E-03    1.0137876E-24
 -1.1625000E-03    1.0218088E-24
 -1.1620000E-03    1.0326607E-24
 -1.1615000E-03    1.0464509E-24
 -1.1610000E-03    1.0626450E-24
 -1.1605000E-03    1.0795787E-24
 -1.1600000E-03    1.0937906E-24
 -1.1595000E-03    1.0991710E-24
 -1.1590000E-03    1.0859629E-24
 -1.1585000E-03    1.0397137E-24
 -1.1580000E-03    9.4036993E-25
 -1.1575000E-03    7.6183197E-25
 -1.1570000E-03    4.7244613E-25
 -1.1565000E-03    3.7084857E-26
 -1.1560000E-03   -5.7834938E-25
 -1.1555000E-03   -1.3990200E-24
 -1.1549999E-03   -2.4288207E-24
 -1.1544999E-03   -3.6326899E-24
 -1.1540001E-03   -4.9130320E-24
 -1.1535001E-03   -6.0804491E-24
 -1.1530000E-03   -6.8202271E-24
 -1.1525000E-03   -6.6578291E-24
 -1.1520000E-03   -4.9291315E-24
 -1.1515000E-03   -7.6417178E-25
 -1.1510000E-03    6.9032595E-24
 -1.1505000E-03    1.9284279E-23
 -1.1500000E-03    3.7622733E-23
 -1.1495000E-03    6.3001303E-23
 -1.1490000E-03    9.6045664E-23
 -1.1485000E-03    1.3651097E-22
 -1.1480000E-03    1.8274501E-22
 -1.1475000E-03    2.3103941E-22
 -1.1470000E-03    2.7490558E-22
 -1.1465000E-03    3.0434711E-22
 -1.1460000E-03    3.0524318E-22
 -1.1455000E-03    2.5900808E-22
 -1.1450000E-03    1.4274447E-22
 -1.1445000E-03   -6.9843201E-23
 -1.1440000E-03   -4.0647503E-22
 -1.1435000E-03   -8.9295460E-22
 -1.1430000E-03   -1.5481894E-21
 -1.1425000E-03   -2.3774003E-21
 -1.1420000E-03   -3.3635205E-21
 -1.1415000E-03   -4.4570580E-21
 -1.1410000E-03   -5.5650547E-21
 -1.1405000E-03   -6.5402574E-21
 -1.1399999E-03   -7.1721470E-21
 -1.1394999E-03   -7.1820764E-21
 -1.1390001E-03   -6.2253169E-21
 -1.1385001E-03   -3.9032642E-21
 -1.1380001E-03    2.1071473E-22
 -1.1375000E-03    6.5285117E-21
 -1.1370000E-03    1.5384963E-20
 -1.1365000E-03    2.6954785E-20
 -1.1360000E-03    4.1149738E-20
 -1.1355000E-03    5.7500116E-20
 -1.1350000E-03    7.5028623E-20
 -1.1345000E-03    9.2129451E-20
 -1.1340000E-03    1.0647059E-19
 -1.1335000E-03    1.1494245E-19
 -1.1330000E-03    1.1368053E-19
 -1.1325000E-03    9.8192549E-20
 -1.1320000E-03    6.3620626E-20
 -1.1315000E-03    5.1657013E-21
 -1.1310000E-03   -8.1307434E-20
 -1.1305000E-03   -1.9848044E-19
 -1.1300000E-03   -3.4662401E-19
 -1.1295000E-03   -5.2251769E-19
 -1.1290000E-03   -7.1832411E-19
 -1.1285000E-03   -9.2053405E-19
 -1.1280000E-03   -1.1091351E-18
 -1.1275000E-03   -1.2571935E-18
 -1.1270000E-03   -1.3310636E-18
 -1.1265000E-03   -1.2914512E-18
 -1.1260000E-03   -1.0955454E-18
 -1.1255000E-03   -7.0039016E-19
 -1.1250000E-03   -6.7594453E-20
 -1.1244999E-03    8.3064397E-19
 -1.1239999E-03    2.0043784E-18
 -1.1235001E-03    3.4379932E-18
 -1.1230001E-03    5.0821216E-18
 -1.1225000E-03    6.8462385E-18
 -1.1220000E-03    8.5929863E-18
 -1.1215000E-03    1.0135485E-17
 -1.1210000E-03    1.1238979E-17
 -1.1205000E-03    1.1628194E-17
 -1.1200000E-03    1.1001587E-17
 -1.1195000E-03    9.0533760E-18
 -1.1190000E-03    5.5036752E-18
 -1.1185000E-03    1.3628701E-19
 -1.1180000E-03   -7.1572514E-18
 -1.1175000E-03   -1.6329902E-17
 -1.1170000E-03   -2.7131403E-17
 -1.1165000E-03   -3.9065580E-17
 -1.1160000E-03   -5.1358701E-17
 -1.1155000E-03   -6.2945778E-17
 -1.1150000E-03   -7.2481774E-17
 -1.1145000E-03   -7.8384594E-17
 -1.1140000E-03   -7.8915254E-17
 -1.1135000E-03   -7.2298669E-17
 -1.1130000E-03   -5.6885323E-17
 -1.1125000E-03   -3.1349914E-17
 -1.1120000E-03    5.0816993E-18
 -1.1115000E-03    5.2391483E-17
 -1.1110000E-03    1.0953391E-16
 -1.1105000E-03    1.7423113E-16
 -1.1100000E-03    2.4282759E-16
 -1.1094999E-03    3.1023553E-16
 -1.1089999E-03    3.7000186E-16
 -1.1084999E-03    4.1452445E-16
 -1.1080001E-03    4.3543822E-16
 -1.1075001E-03    4.2417981E-16
 -1.1070000E-03    3.7272597E-16
 -1.1065000E-03    2.7448124E-16
 -1.1060000E-03    1.2527002E-16
 -1.1055000E-03   -7.5633809E-17
 -1.1050000E-03   -3.2452712E-16
 -1.1045000E-03   -6.1245342E-16
 -1.1040000E-03   -9.2465145E-16
 -1.1035000E-03   -1.2403980E-15
 -1.1030000E-03   -1.5333570E-15
 -1.1025000E-03   -1.7725292E-15
 -1.1020000E-03   -1.9238625E-15
 -1.1015000E-03   -1.9525316E-15
 -1.1010000E-03   -1.8258399E-15
 -1.1005000E-03   -1.5166248E-15
 -1.1000000E-03   -1.0069697E-15
 -1.0995000E-03   -2.9195910E-16
 -1.0990000E-03    6.1686164E-16
 -1.0985000E-03    1.6886985E-15
 -1.0980000E-03    2.8718010E-15
 -1.0975000E-03    4.0932291E-15
 -1.0970000E-03    5.2604418E-15
 -1.0965000E-03    6.2649602E-15
 -1.0960000E-03    6.9882310E-15
 -1.0955000E-03    7.3096267E-15
 -1.0950000E-03    7.1163227E-15
 -1.0945000E-03    6.3145739E-15
 -1.0939999E-03    4.8416581E-15
 -1.0934999E-03    2.6775813E-15
 -1.0930001E-03   -1.4454371E-16
 -1.0925001E-03   -3.5306286E-15
 -1.0920000E-03   -7.3214326E-15
 -1.0915000E-03   -1.1293165E-14
 -1.0910000E-03   -1.5163733E-14
 -1.0905000E-03   -1.8605160E-14
 -1.0900000E-03   -2.1262248E-14
 -1.0895000E-03   -2.2777026E-14
 -1.0890000E-03   -2.2817902E-14
 -1.0885000E-03   -2.1111866E-14
 -1.0880000E-03   -1.7477483E-14
 -1.0875000E-03   -1.1855987E-14
 -1.0870000E-03   -4.3374541E-15
 -1.0865000E-03    4.8210210E-15
 -1.0860000E-03    1.5188061E-14
 -1.0855000E-03    2.6164077E-14
 -1.0850000E-03    3.7002346E-14
 -1.0845000E-03    4.6845740E-14
 -1.0840000E-03    5.4778414E-14
 -1.0835000E-03    5.9890467E-14
 -1.0830000E-03    6.1352067E-14
 -1.0825000E-03    5.8492179E-14
 -1.0820000E-03    5.0875984E-14
 -1.0815000E-03    3.8374218E-14
 -1.0810000E-03    2.1217481E-14
 -1.0805000E-03    2.8800116E-17
 -1.0800000E-03   -2.4171308E-14
 -1.0795000E-03   -4.9991431E-14
 -1.0790000E-03   -7.5729536E-14
 -1.0784999E-03   -9.9466307E-14
 -1.0779999E-03   -1.1918798E-13
 -1.0775001E-03   -1.3293227E-13
 -1.0770001E-03   -1.3894789E-13
 -1.0765000E-03   -1.3585643E-13
 -1.0760000E-03   -1.2280292E-13
 -1.0755000E-03   -9.9581930E-14
 -1.0750000E-03   -6.6725583E-14
 -1.0745000E-03   -2.5542202E-14
 -1.0740000E-03    2.1902742E-14
 -1.0735000E-03    7.2867981E-14
 -1.0730000E-03    1.2407957E-13
 -1.0725000E-03    1.7193010E-13
 -1.0720000E-03    2.1272315E-13
 -1.0715000E-03    2.4294686E-13
 -1.0710000E-03    2.5955705E-13
 -1.0705000E-03    2.6024782E-13
 -1.0700000E-03    2.4368612E-13
 -1.0695000E-03    2.0968863E-13
 -1.0690000E-03    1.5932209E-13
 -1.0685000E-03    9.4913376E-14
 -1.0680000E-03    1.9961758E-14
 -1.0675000E-03   -6.1046166E-14
 -1.0670000E-03   -1.4291048E-13
 -1.0665000E-03   -2.2006488E-13
 -1.0660000E-03   -2.8697346E-13
 -1.0655000E-03   -3.3854912E-13
 -1.0650000E-03   -3.7056222E-13
 -1.0645000E-03   -3.8000752E-13
 -1.0640000E-03   -3.6539909E-13
 -1.0634999E-03   -3.2696751E-13
 -1.0629999E-03   -2.6674003E-13
 -1.0625001E-03   -1.8849162E-13
 -1.0620001E-03   -9.7564623E-14
 -1.0615001E-03   -5.6241887E-16
 -1.0610000E-03    9.5068877E-14
 -1.0605000E-03    1.8154982E-13
 -1.0600000E-03    2.5134202E-13
 -1.0595000E-03    2.9775745E-13
 -1.0590000E-03    3.1557013E-13
 -1.0585000E-03    3.0159664E-13
 -1.0580000E-03    2.5521057E-13
 -1.0575000E-03    1.7875552E-13
 -1.0570000E-03    7.7819255E-14
 -1.0565000E-03   -3.8668992E-14
 -1.0560000E-03   -1.5855904E-13
 -1.0555000E-03   -2.6685880E-13
 -1.0550000E-03   -3.4641138E-13
 -1.0545000E-03   -3.7890334E-13
 -1.0540000E-03   -3.4622432E-13
 -1.0535000E-03   -2.3217680E-13
 -1.0530000E-03   -2.4502823E-14
 -1.0525000E-03    2.8284758E-13
 -1.0520000E-03    6.8733458E-13
 -1.0515000E-03    1.1755194E-12
 -1.0510000E-03    1.7210761E-12
 -1.0505000E-03    2.2834261E-12
 -1.0500000E-03    2.8073403E-12
 -1.0495000E-03    3.2238630E-12
 -1.0490000E-03    3.4528999E-12
 -1.0485000E-03    3.4077344E-12
 -1.0479999E-03    3.0016261E-12
 -1.0474999E-03    2.1564595E-12
 -1.0470001E-03    8.1318914E-13
 -1.0465001E-03   -1.0564512E-12
 -1.0460000E-03   -3.4378062E-12
 -1.0455000E-03   -6.2618439E-12
 -1.0450000E-03   -9.3957767E-12
 -1.0445000E-03   -1.2637330E-11
 -1.0440000E-03   -1.5714300E-11
 -1.0435000E-03   -1.8290935E-11
 -1.0430000E-03   -1.9982457E-11
 -1.0425000E-03   -2.0378437E-11
 -1.0420000E-03   -1.9075201E-11
 -1.0415000E-03   -1.5716355E-11
 -1.0410000E-03   -1.0039655E-11
 -1.0405000E-03   -1.9271566E-12
 -1.0400000E-03    8.5453779E-12
 -1.0395000E-03    2.1064917E-11
 -1.0390000E-03    3.5049168E-11
 -1.0385000E-03    4.9632187E-11
 -1.0380000E-03    6.3673337E-11
 -1.0375000E-03    7.5794482E-11
 -1.0370000E-03    8.4448670E-11
 -1.0365000E-03    8.8021299E-11
 -1.0360000E-03    8.4961767E-11
 -1.0355000E-03    7.3940375E-11
 -1.0350000E-03    5.4021312E-11
 -1.0345000E-03    2.4839346E-11
 -1.0340000E-03   -1.3235701E-11
 -1.0335000E-03   -5.8964666E-11
 -1.0329999E-03   -1.1015422E-10
 -1.0324999E-03   -1.6364023E-10
 -1.0319999E-03   -2.1535561E-10
 -1.0315001E-03   -2.6049465E-10
 -1.0310001E-03   -2.9377928E-10
 -1.0305000E-03   -3.0982431E-10
 -1.0300000E-03   -3.0358935E-10
 -1.0295000E-03   -2.7089359E-10
 -1.0290000E-03   -2.0896058E-10
 -1.0285000E-03   -1.1694926E-10
 -1.0280000E-03    3.5792970E-12
 -1.0275000E-03    1.4831354E-10
 -1.0270000E-03    3.1001662E-10
 -1.0265000E-03    4.7857396E-10
 -1.0260000E-03    6.4130246E-10
 -1.0255000E-03    7.8354340E-10
 -1.0250000E-03    8.8954094E-10
 -1.0245000E-03    9.4358177E-10
 -1.0240000E-03    9.3134456E-10
 -1.0235000E-03    8.4137991E-10
 -1.0230000E-03    6.6661371E-10
 -1.0225000E-03    4.0574827E-10
 -1.0220000E-03    6.4420427E-11
 -1.0215000E-03   -3.4402792E-10
 -1.0210000E-03   -7.9830098E-10
 -1.0205000E-03   -1.2695349E-09
 -1.0200000E-03   -1.7223953E-09
 -1.0195000E-03   -2.1169129E-09
 -1.0190000E-03   -2.4110267E-09
 -1.0185000E-03   -2.5637348E-09
 -1.0180000E-03   -2.5386830E-09
 -1.0174999E-03   -2.3079625E-09
 -1.0169999E-03   -1.8558217E-09
 -1.0165001E-03   -1.1819665E-09
 -1.0160001E-03   -3.0409988E-10
 -1.0155000E-03    7.4063378E-10
 -1.0150000E-03    1.8955955E-09
 -1.0145000E-03    3.0862142E-09
 -1.0140000E-03    4.2232822E-09
 -1.0135000E-03    5.2079803E-09
 -1.0130000E-03    5.9384626E-09
 -1.0125000E-03    6.3177032E-09
 -1.0120000E-03    6.2621246E-09
 -1.0115000E-03    5.7104108E-09
 -1.0110000E-03    4.6317981E-09
 -1.0105000E-03    3.0330736E-09
 -1.0100000E-03    9.6351793E-10
 -1.0095000E-03   -1.4829160E-09
 -1.0090000E-03   -4.1687631E-09
 -1.0085000E-03   -6.9179209E-09
 -1.0080000E-03   -9.5243538E-09
 -1.0075000E-03   -1.1764446E-08
 -1.0070000E-03   -1.3412492E-08
 -1.0065000E-03   -1.4258465E-08
 -1.0060000E-03   -1.4126934E-08
 -1.0055000E-03   -1.2895730E-08
 -1.0050000E-03   -1.0512784E-08
 -1.0045000E-03   -7.0095467E-09
 -1.0040000E-03   -2.5094418E-09
 -1.0035000E-03    2.7699931E-09
 -1.0030000E-03    8.5222291E-09
 -1.0025000E-03    1.4364662E-08
 -1.0019999E-03    1.9859245E-08
 -1.0014999E-03    2.4540126E-08
 -1.0010001E-03    2.7946918E-08
 -1.0005001E-03    2.9661607E-08
 -1.0000000E-03    2.9346561E-08
 -9.9950004E-04    2.6780704E-08
 -9.9900004E-04    2.1890735E-08
 -9.9850004E-04    1.4774304E-08
 -9.9800003E-04    5.7123275E-09
 -9.9750003E-04   -4.8317643E-09
 -9.9700002E-04   -1.6227295E-08
 -9.9650002E-04   -2.7706545E-08
 -9.9600002E-04   -3.8409130E-08
 -9.9550001E-04   -4.7438618E-08
 -9.9500001E-04   -5.3928161E-08
 -9.9450001E-04   -5.7110931E-08
 -9.9400000E-04   -5.6390284E-08
 -9.9350000E-04   -5.1404005E-08
 -9.9299999E-04   -4.2076955E-08
 -9.9249999E-04   -2.8656723E-08
 -9.9199999E-04   -1.1727745E-08
 -9.9149998E-04    7.7994695E-09
 -9.9099998E-04    2.8725585E-08
 -9.9049998E-04    4.9625903E-08
 -9.8999997E-04    6.8937567E-08
 -9.8949997E-04    8.5065970E-08
 -9.8899996E-04    9.6503840E-08
 -9.8849996E-04    1.0195475E-07
 -9.8799996E-04    1.0045196E-07
 -9.8749995E-04    9.1462532E-08
 -9.8699995E-04    7.4967630E-08
 -9.8649994E-04    5.1510078E-08
 -9.8600006E-04    2.2202958E-08
 -9.8550005E-04   -1.1305023E-08
 -9.8500005E-04   -4.6908422E-08
 -9.8450005E-04   -8.2165791E-08
 -9.8400004E-04   -1.1445641E-07
 -9.8350004E-04   -1.4116364E-07
 -9.8300003E-04   -1.5987297E-07
 -9.8250003E-04   -1.6857047E-07
 -9.8200003E-04   -1.6582617E-07
 -9.8150002E-04   -1.5094712E-07
 -9.8100002E-04   -1.2408569E-07
 -9.8050002E-04   -8.6291656E-08
 -9.8000001E-04   -3.9499525E-08
 -9.7950001E-04    1.3552403E-08
 -9.7900000E-04    6.9469884E-08
 -9.7850000E-04    1.2441085E-07
 -9.7800000E-04    1.7434165E-07
 -9.7749999E-04    2.1532527E-07
 -9.7699999E-04    2.4382081E-07
 -9.7649998E-04    2.5697238E-07
 -9.7599998E-04    2.5286423E-07
 -9.7549998E-04    2.3072029E-07
 -9.7499997E-04    1.9102961E-07
 -9.7450003E-04    1.3558362E-07
 -9.7400002E-04    6.7417126E-08
 -9.7350002E-04   -9.3474206E-09
 -9.7300002E-04   -8.9745981E-08
 -9.7250001E-04   -1.6829497E-07
 -9.7200001E-04   -2.3936832E-07
 -9.7150001E-04   -2.9760349E-07
 -9.7100000E-04   -3.3830639E-07
 -9.7050000E-04   -3.5782426E-07
 -9.6999999E-04   -3.5385642E-07
 -9.6949999E-04   -3.2567638E-07
 -9.6899999E-04   -2.7424483E-07
 -9.6849998E-04   -2.0220065E-07
 -9.6799998E-04   -1.1372649E-07
 -9.6749997E-04   -1.4294805E-08
 -9.6700003E-04    8.9689557E-08
 -9.6650003E-04    1.9132587E-07
 -9.6600002E-04    2.8370135E-07
 -9.6550002E-04    3.6038634E-07
 -9.6500001E-04    4.1590263E-07
 -9.6450001E-04    4.4612827E-07
 -9.6400001E-04    4.4860661E-07
 -9.6350000E-04    4.2273419E-07
 -9.6300000E-04    3.6981197E-07
 -9.6249999E-04    2.9295506E-07
 -9.6199999E-04    1.9686773E-07
 -9.6149999E-04    8.7501824E-08
 -9.6099998E-04   -2.8373671E-08
 -9.6049998E-04   -1.4365664E-07
 -9.5999998E-04   -2.5140960E-07
 -9.5949997E-04   -3.4533082E-07
 -9.5900003E-04   -4.2016021E-07
 -9.5850002E-04   -4.7198893E-07
 -9.5800002E-04   -4.9844954E-07
 -9.5750001E-04   -4.9877582E-07
 -9.5700001E-04   -4.7373291E-07
 -9.5650001E-04   -4.2543184E-07
 -9.5600000E-04   -3.5705290E-07
 -9.5550000E-04   -2.7251065E-07
 -9.5500000E-04   -1.7609952E-07
 -9.5449999E-04   -7.2158961E-08
 -9.5399999E-04    3.5205197E-08
 -9.5349998E-04    1.4231428E-07
 -9.5299998E-04    2.4600698E-07
 -9.5249998E-04    3.4362142E-07
 -9.5199997E-04    4.3287844E-07
 -9.5150003E-04    5.1168973E-07
 -9.5100002E-04    5.7792664E-07
 -9.5050002E-04    6.2919298E-07
 -9.5000002E-04    6.6264994E-07
 -9.4950001E-04    6.7493914E-07
 -9.4900001E-04    6.6224050E-07
 -9.4850000E-04    6.2048957E-07
 -9.4800000E-04    5.4576122E-07
 -9.4750000E-04    4.3480318E-07
 -9.4699999E-04    2.8568198E-07
 -9.4649999E-04    9.8483717E-08
 -9.4599999E-04   -1.2400795E-07
 -9.4549998E-04   -3.7574301E-07
 -9.4499998E-04   -6.4703636E-07
 -9.4449997E-04   -9.2448403E-07
 -9.4400003E-04   -1.1912324E-06
 -9.4350002E-04   -1.4276440E-06
 -9.4300002E-04   -1.6123674E-06
 -9.4250002E-04   -1.7237854E-06
 -9.4200001E-04   -1.7417625E-06
 -9.4150001E-04   -1.6495854E-06
 -9.4100001E-04   -1.4359450E-06
 -9.4050000E-04   -1.0967844E-06
 -9.4000000E-04   -6.3682927E-07
 -9.3949999E-04   -7.0612771E-08
 -9.3899999E-04    5.7716744E-07
 -9.3849999E-04    1.2720869E-06
 -9.3799998E-04    1.9713000E-06
 -9.3749998E-04    2.6257183E-06
 -9.3699998E-04    3.1829913E-06
 -9.3649997E-04    3.5911471E-06
 -9.3600003E-04    3.8026617E-06
 -9.3550002E-04    3.7786838E-06
 -9.3500002E-04    3.4930767E-06
 -9.3450001E-04    2.9359314E-06
 -9.3400001E-04    2.1161991E-06
 -9.3350001E-04    1.0631423E-06
 -9.3300000E-04   -1.7365120E-07
 -9.3250000E-04   -1.5258355E-06
 -9.3200000E-04   -2.9094952E-06
 -9.3149999E-04   -4.2298657E-06
 -9.3099999E-04   -5.3873628E-06
 -9.3049998E-04   -6.2845661E-06
 -9.2999998E-04   -6.8337072E-06
 -9.2949998E-04   -6.9641078E-06
 -9.2899997E-04   -6.6289931E-06
 -9.2850003E-04   -5.8110913E-06
 -9.2800002E-04   -4.5264787E-06
 -9.2750002E-04   -2.8262207E-06
 -9.2700002E-04   -7.9550955E-07
 -9.2650001E-04    1.4498428E-06
 -9.2600001E-04    3.7694947E-06
 -9.2550000E-04    6.0069760E-06
 -9.2500000E-04    7.9999336E-06
 -9.2450000E-04    9.5915721E-06
 -9.2399999E-04    1.0642498E-05
 -9.2349999E-04    1.1042112E-05
 -9.2299999E-04    1.0718626E-05
 -9.2249998E-04    9.6468711E-06
 -9.2199998E-04    7.8531593E-06
 -9.2149997E-04    5.4166430E-06
 -9.2100003E-04    2.4668434E-06
 -9.2050002E-04   -8.2267991E-07
 -9.2000002E-04   -4.2442839E-06
 -9.1950002E-04   -7.5692719E-06
 -9.1900001E-04   -1.0563194E-05
 -9.1850001E-04   -1.3002400E-05
 -9.1800001E-04   -1.4690650E-05
 -9.1750000E-04   -1.5474579E-05
 -9.1700000E-04   -1.5256772E-05
 -9.1649999E-04   -1.4005363E-05
 -9.1599999E-04   -1.1759313E-05
 -9.1549999E-04   -8.6287337E-06
 -9.1499998E-04   -4.7900603E-06
 -9.1449998E-04   -4.7619196E-07
 -9.1399997E-04    4.0378509E-06
 -9.1349997E-04    8.4528738E-06
 -9.1300003E-04    1.2465853E-05
 -9.1250002E-04    1.5791249E-05
 -9.1200002E-04    1.8181769E-05
 -9.1150001E-04    1.9446978E-05
 -9.1100001E-04    1.9468369E-05
 -9.1050001E-04    1.8209645E-05
 -9.1000000E-04    1.5721344E-05
 -9.0950000E-04    1.2139317E-05
 -9.0899999E-04    7.6770348E-06
 -9.0849999E-04    2.6121829E-06
 -9.0799999E-04   -2.7316057E-06
 -9.0749998E-04   -8.0065829E-06
 -9.0699998E-04   -1.2864741E-05
 -9.0649998E-04   -1.6981941E-05
 -9.0599997E-04   -2.0080555E-05
 -9.0550003E-04   -2.1948916E-05
 -9.0500002E-04   -2.2456124E-05
 -9.0450002E-04   -2.1561133E-05
 -9.0400001E-04   -1.9315379E-05
 -9.0350001E-04   -1.5858841E-05
 -9.0300001E-04   -1.1409801E-05
 -9.0250000E-04   -6.2491672E-06
 -9.0200000E-04   -7.0055330E-07
 -9.0150000E-04    4.8923089E-06
 -9.0099999E-04    1.0189087E-05
 -9.0049999E-04    1.4875510E-05
 -8.9999998E-04    1.8683457E-05
 -8.9949998E-04    2.1407048E-05
 -8.9899998E-04    2.2913609E-05
 -8.9849997E-04    2.3148899E-05
 -8.9800003E-04    2.2136397E-05
 -8.9750002E-04    1.9971041E-05
 -8.9700002E-04    1.6808204E-05
 -8.9650002E-04    1.2849111E-05
 -8.9600001E-04    8.3241348E-06
 -8.9550001E-04    3.4755649E-06
 -8.9500000E-04   -1.4586037E-06
 -8.9450000E-04   -6.2584832E-06
 -8.9400000E-04   -1.0732641E-05
 -8.9349999E-04   -1.4724323E-05
 -8.9299999E-04   -1.8113362E-05
 -8.9249999E-04   -2.0814086E-05
 -8.9199998E-04   -2.2769964E-05
 -8.9149998E-04   -2.3946130E-05
 -8.9099997E-04   -2.4321153E-05
 -8.9050003E-04   -2.3879513E-05
 -8.9000002E-04   -2.2606175E-05
 -8.8950002E-04   -2.0484409E-05
 -8.8900002E-04   -1.7497599E-05
 -8.8850001E-04   -1.3635283E-05
 -8.8800001E-04   -8.9030791E-06
 -8.8750001E-04   -3.3355868E-06
 -8.8700000E-04    2.9892246E-06
 -8.8650000E-04    9.9359922E-06
 -8.8599999E-04    1.7300443E-05
 -8.8549999E-04    2.4802543E-05
 -8.8499999E-04    3.2086282E-05
 -8.8449998E-04    3.8727601E-05
 -8.8399998E-04    4.4251374E-05
 -8.8349998E-04    4.8157464E-05
 -8.8299997E-04    4.9954961E-05
 -8.8250003E-04    4.9202787E-05
 -8.8200002E-04    4.5553905E-05
 -8.8150002E-04    3.8799582E-05
 -8.8100001E-04    2.8909830E-05
 -8.8050001E-04    1.6065636E-05
 -8.8000001E-04    6.7916659E-07
 -8.7950000E-04   -1.6601722E-05
 -8.7900000E-04   -3.4907105E-05
 -8.7850000E-04   -5.3178112E-05
 -8.7799999E-04   -7.0219328E-05
 -8.7749999E-04   -8.4768668E-05
 -8.7699998E-04   -9.5581141E-05
 -8.7649998E-04   -1.0152166E-04
 -8.7599998E-04   -1.0166033E-04
 -8.7549997E-04   -9.5363241E-05
 -8.7500003E-04   -8.2371131E-05
 -8.7450002E-04   -6.2858599E-05
 -8.7400002E-04   -3.7467231E-05
 -8.7350002E-04   -7.3076708E-06
 -8.7300001E-04    2.6072667E-05
 -8.7250001E-04    6.0756978E-05
 -8.7200000E-04    9.4559800E-05
 -8.7150000E-04    1.2515653E-04
 -8.7100000E-04    1.5023460E-04
 -8.7049999E-04    1.6765707E-04
 -8.6999999E-04    1.7562756E-04
 -8.6949999E-04    1.7284451E-04
 -8.6899998E-04    1.5863258E-04
 -8.6849998E-04    1.3304006E-04
 -8.6799997E-04    9.6892094E-05
 -8.6750003E-04    5.1793235E-05
 -8.6700002E-04    7.4717128E-08
 -8.6650002E-04   -5.5313223E-05
 -8.6600002E-04   -1.1096038E-04
 -8.6550001E-04   -1.6319902E-04
 -8.6500001E-04   -2.0833826E-04
 -8.6450001E-04   -2.4291589E-04
 -8.6400000E-04   -2.6395067E-04
 -8.6350000E-04   -2.6917746E-04
 -8.6299999E-04   -2.5724748E-04
 -8.6249999E-04   -2.2787743E-04
 -8.6199999E-04   -1.8193385E-04
 -8.6149998E-04   -1.2144321E-04
 -8.6099998E-04   -4.9522590E-05
 -8.6049997E-04    2.9768536E-05
 -8.5999997E-04    1.1164952E-04
 -8.5950003E-04    1.9090121E-04
 -8.5900002E-04    2.6219367E-04
 -8.5850002E-04    3.2043888E-04
 -8.5800001E-04    3.6114475E-04
 -8.5750001E-04    3.8074664E-04
 -8.5700001E-04    3.7689210E-04
 -8.5650000E-04    3.4865734E-04
 -8.5600000E-04    2.9667708E-04
 -8.5549999E-04    2.2317549E-04
 -8.5499999E-04    1.3189107E-04
 -8.5449999E-04    2.7896662E-05
 -8.5399998E-04   -8.2678082E-05
 -8.5349998E-04   -1.9300659E-04
 -8.5299998E-04   -2.9598677E-04
 -8.5249997E-04   -3.8469769E-04
 -8.5200003E-04   -4.5286209E-04
 -8.5150002E-04   -4.9528357E-04
 -8.5100002E-04   -5.0822843E-04
 -8.5050002E-04   -4.8972422E-04
 -8.5000001E-04   -4.3975227E-04
 -8.4950001E-04   -3.6031791E-04
 -8.4900000E-04   -2.5538911E-04
 -8.4850000E-04   -1.3070450E-04
 -8.4800000E-04    6.5415793E-06
 -8.4749999E-04    1.4811871E-04
 -8.4699999E-04    2.8526050E-04
 -8.4649998E-04    4.0921388E-04
 -8.4599998E-04    5.1180297E-04
 -8.4549998E-04    5.8596989E-04
 -8.4499997E-04    6.2625768E-04
 -8.4450003E-04    6.2920043E-04
 -8.4400002E-04    5.9359462E-04
 -8.4350002E-04    5.2063004E-04
 -8.4300002E-04    4.1386965E-04
 -8.4250001E-04    2.7907605E-04
 -8.4200001E-04    1.2389361E-04
 -8.4150000E-04   -4.2596017E-05
 -8.4100000E-04   -2.1041823E-04
 -8.4050000E-04   -3.6931588E-04
 -8.3999999E-04   -5.0938729E-04
 -8.3949999E-04   -6.2171172E-04
 -8.3899999E-04   -6.9892040E-04
 -8.3849998E-04   -7.3567848E-04
 -8.3799998E-04   -7.2904333E-04
 -8.3749997E-04   -6.7867729E-04
 -8.3700003E-04   -5.8689958E-04
 -8.3650002E-04   -4.5857267E-04
 -8.3600002E-04   -3.0083000E-04
 -8.3550002E-04   -1.2266102E-04
 -8.3500001E-04    6.5620123E-05
 -8.3450001E-04    2.5298999E-04
 -8.3400001E-04    4.2837631E-04
 -8.3350000E-04    5.8132265E-04
 -8.3300000E-04    7.0261623E-04
 -8.3249999E-04    7.8484026E-04
 -8.3199999E-04    8.2281703E-04
 -8.3149999E-04    8.1391609E-04
 -8.3099998E-04    7.5820915E-04
 -8.3049998E-04    6.5846439E-04
 -8.2999998E-04    5.1998225E-04
 -8.2949997E-04    3.5028439E-04
 -8.2900003E-04    1.5867686E-04
 -8.2850002E-04   -4.4285287E-05
 -8.2800002E-04   -2.4739816E-04
 -8.2750001E-04   -4.3943836E-04
 -8.2700001E-04   -6.0978410E-04
 -8.2650001E-04   -7.4899377E-04
 -8.2600000E-04   -8.4930932E-04
 -8.2550000E-04   -9.0505939E-04
 -8.2500000E-04   -9.1294240E-04
 -8.2449999E-04   -8.7217812E-04
 -8.2399999E-04   -7.8452402E-04
 -8.2349998E-04   -6.5416039E-04
 -8.2299998E-04   -4.8745447E-04
 -8.2249998E-04   -2.9262112E-04
 -8.2199997E-04   -7.9300044E-05
 -8.2150003E-04    1.4192559E-04
 -8.2100002E-04    3.6004471E-04
 -8.2050002E-04    5.6414225E-04
 -8.2000002E-04    7.4390840E-04
 -8.1950001E-04    8.9011138E-04
 -8.1900001E-04    9.9501607E-04
 -8.1850000E-04    1.0527339E-03
 -8.1800000E-04    1.0594921E-03
 -8.1750000E-04    1.0138178E-03
 -8.1699999E-04    9.1662834E-04
 -8.1649999E-04    7.7122974E-04
 -8.1599999E-04    5.8322330E-04
 -8.1549998E-04    3.6032152E-04
 -8.1499998E-04    1.1207956E-04
 -8.1449997E-04   -1.5045299E-04
 -8.1400003E-04   -4.1515171E-04
 -8.1350002E-04   -6.6929829E-04
 -8.1300002E-04   -9.0011145E-04
 -8.1250002E-04   -1.0953124E-03
 -8.1200001E-04   -1.2437060E-03
 -8.1150001E-04   -1.3357577E-03
 -8.1100001E-04   -1.3641416E-03
 -8.1050000E-04   -1.3242322E-03
 -8.1000000E-04   -1.2145110E-03
 -8.0949999E-04   -1.0368612E-03
 -8.0899999E-04   -7.9672085E-04
 -8.0849999E-04   -5.0307222E-04
 -8.0799998E-04   -1.6824789E-04
 -8.0749998E-04    1.9245531E-04
 -8.0699997E-04    5.6135620E-04
 -8.0649997E-04    9.1915182E-04
 -8.0600003E-04    1.2458381E-03
 -8.0550002E-04    1.5217548E-03
 -8.0500002E-04    1.7287030E-03
 -8.0450001E-04    1.8510814E-03
 -8.0400001E-04    1.8769694E-03
 -8.0350001E-04    1.7990908E-03
 -8.0300000E-04    1.6155869E-03
 -8.0250000E-04    1.3305321E-03
 -8.0200000E-04    9.5413713E-04
 -8.0149999E-04    5.0259987E-04
 -8.0099999E-04   -2.4188466E-06
 -8.0049998E-04   -5.3469400E-04
 -7.9999998E-04   -1.0646845E-03
 -7.9949998E-04   -1.5610801E-03
 -7.9899997E-04   -1.9925740E-03
 -7.9850003E-04   -2.3297663E-03
 -7.9800002E-04   -2.5470844E-03
 -7.9750002E-04   -2.6246042E-03
 -7.9700002E-04   -2.5496413E-03
 -7.9650001E-04   -2.3180004E-03
 -7.9600001E-04   -1.9347724E-03
 -7.9550000E-04   -1.4145998E-03
 -7.9500000E-04   -7.8135787E-04
 -7.9450000E-04   -6.7230074E-05
 -7.9399999E-04    6.8879843E-04
 -7.9349999E-04    1.4429714E-03
 -7.9299998E-04    2.1492168E-03
 -7.9249998E-04    2.7618918E-03
 -7.9199998E-04    3.2386631E-03
 -7.9149997E-04    3.5433357E-03
 -7.9100003E-04    3.6484504E-03
 -7.9050002E-04    3.5374674E-03
 -7.9000002E-04    3.2063706E-03
 -7.8950002E-04    2.6645577E-03
 -7.8900001E-04    1.9349224E-03
 -7.8850001E-04    1.0530824E-03
 -7.8800000E-04    6.5756569E-05
 -7.8750000E-04   -9.7164005E-04
 -7.8700000E-04   -1.9980697E-03
 -7.8649999E-04   -2.9504432E-03
 -7.8599999E-04   -3.7674832E-03
 -7.8549999E-04   -4.3936400E-03
 -7.8499998E-04   -4.7828127E-03
 -7.8449998E-04   -4.9016257E-03
 -7.8399997E-04   -4.7320249E-03
 -7.8350003E-04   -4.2730127E-03
 -7.8300002E-04   -3.5413604E-03
 -7.8250002E-04   -2.5712249E-03
 -7.8200002E-04   -1.4126458E-03
 -7.8150001E-04   -1.2898598E-04
 -7.8100001E-04    1.2065612E-03
 -7.8050001E-04    2.5152029E-03
 -7.8000000E-04    3.7172695E-03
 -7.7950000E-04    4.7371401E-03
 -7.7899999E-04    5.5080629E-03
 -7.7849999E-04    5.9765545E-03
 -7.7799999E-04    6.1060903E-03
 -7.7749998E-04    5.8798236E-03
 -7.7699998E-04    5.3021391E-03
 -7.7649998E-04    4.3989075E-03
 -7.7599997E-04    3.2163966E-03
 -7.7550003E-04    1.8188782E-03
 -7.7500002E-04    2.8504946E-04
 -7.7450002E-04   -1.2965227E-03
 -7.7400001E-04   -2.8326649E-03
 -7.7350001E-04   -4.2312485E-03
 -7.7300001E-04   -5.4068728E-03
 -7.7250000E-04   -6.2862211E-03
 -7.7200000E-04   -6.8127438E-03
 -7.7150000E-04   -6.9503644E-03
 -7.7099999E-04   -6.6859522E-03
 -7.7049999E-04   -6.0304007E-03
 -7.6999998E-04   -5.0182189E-03
 -7.6949998E-04   -3.7056527E-03
 -7.6899998E-04   -2.1674377E-03
 -7.6849997E-04   -4.9238221E-04
 -7.6800003E-04    1.2219500E-03
 -7.6750002E-04    2.8751281E-03
 -7.6700002E-04    4.3699397E-03
 -7.6650002E-04    5.6182989E-03
 -7.6600001E-04    6.5465965E-03
 -7.6550001E-04    7.1001630E-03
 -7.6500000E-04    7.2465572E-03
 -7.6450000E-04    6.9774869E-03
 -7.6400000E-04    6.3092383E-03
 -7.6349999E-04    5.2815946E-03
 -7.6299999E-04    3.9553251E-03
 -7.6249999E-04    2.4084109E-03
 -7.6199998E-04    7.3124998E-04
 -7.6149998E-04   -9.7884529E-04
 -7.6099997E-04   -2.6235082E-03
 -7.6050003E-04   -4.1091694E-03
 -7.6000002E-04   -5.3525353E-03
 -7.5950002E-04   -6.2853615E-03
 -7.5900002E-04   -6.8582399E-03
 -7.5850001E-04   -7.0431828E-03
 -7.5800001E-04   -6.8348725E-03
 -7.5750001E-04   -6.2505282E-03
 -7.5700000E-04   -5.3284387E-03
 -7.5650000E-04   -4.1252729E-03
 -7.5599999E-04   -2.7123811E-03
 -7.5549999E-04   -1.1713302E-03
 -7.5499999E-04    4.1102720E-04
 -7.5449998E-04    1.9476360E-03
 -7.5399998E-04    3.3561673E-03
 -7.5349997E-04    4.5635006E-03
 -7.5299997E-04    5.5095144E-03
 -7.5250003E-04    6.1499868E-03
 -7.5200002E-04    6.4584841E-03
 -7.5150002E-04    6.4271684E-03
 -7.5100001E-04    6.0665365E-03
 -7.5050001E-04    5.4041706E-03
 -7.5000001E-04    4.4826153E-03
 -7.4950000E-04    3.3565701E-03
 -7.4900000E-04    2.0895866E-03
 -7.4850000E-04    7.5049489E-04
 -7.4799999E-04   -5.9022917E-04
 -7.4749999E-04   -1.8639576E-03
 -7.4699998E-04   -3.0070913E-03
 -7.4649998E-04   -3.9637904E-03
 -7.4599998E-04   -4.6881624E-03