 -1.2000001E-03    1.0000000E-24
 -1.1995001E-03    1.0000000E-24
 -1.1990000E-03    1.0000000E-24
 -1.1985000E-03    1.0000000E-24
 -1.1980000E-03    1.0000000E-24
 -1.1975000E-03    1.0000000E-24
 -1.1970000E-03    1.0000000E-24
 -1.1965000E-03    1.0000000E-24
 -1.1960000E-03    1.0000001E-24
 -1.1955000E-03    1.0000001E-24
 -1.1950000E-03    1.0000001E-24
 -1.1945000E-03    1.0000001E-24
 -1.1940000E-03    1.0000001E-24
 -1.1935000E-03    1.0000001E-24
 -1.1930000E-03    1.0000001E-24
 -1.1925000E-03    1.0000001E-24
 -1.1920000E-03    1.0000001E-24
 -1.1915000E-03    1.0000001E-24
 -1.1910000E-03    1.0000001E-24
 -1.1905000E-03    1.0000001E-24
 -1.1900000E-03    1.0000001E-24
 -1.1895000E-03    1.0000001E-24
 -1.1890000E-03    1.0000001E-24
 -1.1885000E-03    1.0000001E-24
 -1.1880000E-03    1.0000001E-24
 -1.1875000E-03    1.0000001E-24
 -1.1870000E-03    1.0000002E-24
 -1.1865000E-03    1.0000002E-24
 -1.1860000E-03    1.0000002E-24
 -1.1854999E-03    1.0000002E-24
 -1.1849999E-03    1.0000002E-24
 -1.1845001E-03    1.0000002E-24
 -1.1840001E-03    1.0000002E-24
 -1.1835000E-03    1.0000002E-24
 -1.1830000E-03    1.0000002E-24
 -1.1825000E-03    1.0000002E-24
 -1.1820000E-03    1.0000002E-24
 -1.1815000E-03    1.0000001E-24
 -1.1810000E-03    1.0000001E-24
 -1.1805000E-03    1.0000001E-24
 -1.1800000E-03    1.0000001E-24
 -1.1795000E-03    1.0000001E-24
 -1.1790000E-03    1.0000001E-24
 -1.1785000E-03    1.0000001E-24
 -1.1780000E-03    1.0000001E-24
 -1.1775000E-03    1.0000001E-24
 -1.1770000E-03    1.0000001E-24
 -1.1765000E-03    1.0000001E-24
 -1.1760000E-03    1.0000001E-24
 -1.1755000E-03    1.0000001E-24
 -1.1750000E-03    1.0000001E-24
 -1.1745000E-03    1.0000001E-24
 -1.1740000E-03    1.0000001E-24
 -1.1735000E-03    1.0000001E-24
 -1.1730000E-03    1.0000001E-24
 -1.1725000E-03    1.0000001E-24
 -1.1720000E-03    1.0000001E-24
 -1.1715000E-03    1.0000001E-24
 -1.1710000E-03    1.0000001E-24
 -1.1704999E-03    1.0000001E-24
 -1.1699999E-03    1.0000001E-24
 -1.1695001E-03    1.0000001E-24
 -1.1690001E-03    1.0000001E-24
 -1.1685000E-03    1.0000001E-24
 -1.1680000E-03    1.0000001E-24
 -1.1675000E-03    1.0000001E-24
 -1.1670000E-03    1.0000001E-24
 -1.1665000E-03    1.0000001E-24
 -1.1660000E-03    1.0000001E-24
 -1.1655000E-03    1.0000001E-24
 -1.1650000E-03    1.0000001E-24
 -1.1645000E-03    1.0000001E-24
 -1.1640000E-03    1.0000001E-24
 -1.1635000E-03    1.0000001E-24
 -1.1630000E-03    1.0000001E-24
 -1.1625000E-03    1.0000001E-24
 -1.1620000E-03    1.0000001E-24
 -1.1615000E-03    1.0000001E-24
 -1.1610000E-03    1.0000002E-24
 -1.1605000E-03    1.0000003E-24
 -1.1600000E-03    1.0000003E-24
 -1.1595000E-03    1.0000003E-24
 -1.1590000E-03    1.0000003E-24
 -1.1585000E-03    1.0000003E-24
 -1.1580000E-03    1.0000003E-24
 -1.1575000E-03    1.0000003E-24
 -1.1570000E-03    1.0000003E-24
 -1.1565000E-03    1.0000003E-24
 -1.1560000E-03    1.0000003E-24
 -1.1555000E-03    1.0000003E-24
 -1.1549999E-03    1.0000003E-24
 -1.1544999E-03    1.0000003E-24
 -1.1540001E-03    1.0000002E-24
 -1.1535001E-03    1.0000001E-24
 -1.1530000E-03    1.0000000E-24
 -1.1525000E-03    1.0000000E-24
 -1.1520000E-03    1.0000000E-24
 -1.1515000E-03    1.0000000E-24
 -1.1510000E-03    1.0000000E-24
 -1.1505000E-03    1.0000000E-24
 -1.1500000E-03    1.0000000E-24
 -1.1495000E-03    1.0000000E-24
 -1.1490000E-03    1.0000000E-24
 -1.1485000E-03    1.0000000E-24
 -1.1480000E-03    1.0000000E-24
 -1.1475000E-03    1.0000000E-24
 -1.1470000E-03    1.0000000E-24
 -1.1465000E-03    1.0000000E-24
 -1.1460000E-03    1.0000000E-24
 -1.1455000E-03    1.0000000E-24
 -1.1450000E-03    1.0000000E-24
 -1.1445000E-03    1.0000000E-24
 -1.1440000E-03    1.0000000E-24
 -1.1435000E-03    1.0000000E-24
 -1.1430000E-03    1.0000000E-24
 -1.1425000E-03    1.0000000E-24
 -1.1420000E-03    1.0000000E-24
 -1.1415000E-03    1.0000000E-24
 -1.1410000E-03    1.0000000E-24
 -1.1405000E-03    1.0000000E-24
 -1.1399999E-03    1.0000000E-24
 -1.1394999E-03    1.0000000E-24
 -1.1390001E-03    1.0000000E-24
 -1.1385001E-03    1.0000001E-24
 -1.1380001E-03    1.0000002E-24
 -1.1375000E-03    1.0000003E-24
 -1.1370000E-03    1.0000004E-24
 -1.1365000E-03    1.0000004E-24
 -1.1360000E-03    1.0000004E-24
 -1.1355000E-03    1.0000004E-24
 -1.1350000E-03    1.0000004E-24
 -1.1345000E-03    1.0000004E-24
 -1.1340000E-03    1.0000004E-24
 -1.1335000E-03    1.0000004E-24
 -1.1330000E-03    1.0000004E-24
 -1.1325000E-03    1.0000004E-24
 -1.1320000E-03    1.0000004E-24
 -1.1315000E-03    1.0000003E-24
 -1.1310000E-03    1.0000002E-24
 -1.1305000E-03    1.0000001E-24
 -1.1300000E-03    1.0000001E-24
 -1.1295000E-03    1.0000001E-24
 -1.1290000E-03    1.0000001E-24
 -1.1285000E-03    1.0000001E-24
 -1.1280000E-03    1.0000001E-24
 -1.1275000E-03    1.0000001E-24
 -1.1270000E-03    1.0000001E-24
 -1.1265000E-03    1.0000001E-24
 -1.1260000E-03    1.0000001E-24
 -1.1255000E-03    1.0000001E-24
 -1.1250000E-03    1.0000001E-24
 -1.1244999E-03    1.0000001E-24
 -1.1239999E-03    1.0000001E-24
 -1.1235001E-03    1.0000001E-24
 -1.1230001E-03    1.0000001E-24
 -1.1225000E-03    1.0000001E-24
 -1.1220000E-03    1.0000001E-24
 -1.1215000E-03    1.0000001E-24
 -1.1210000E-03    1.0000001E-24
 -1.1205000E-03    1.0000001E-24
 -1.1200000E-03    1.0000001E-24
 -1.1195000E-03    1.0000001E-24
 -1.1190000E-03    1.0000001E-24
 -1.1185000E-03    1.0000001E-24
 -1.1180000E-03    1.0000001E-24
 -1.1175000E-03    1.0000001E-24
 -1.1170000E-03    1.0000002E-24
 -1.1165000E-03    1.0000003E-24
 -1.1160000E-03    1.0000005E-24
 -1.1155000E-03    1.0000007E-24
 -1.1150000E-03    1.0000010E-24
 -1.1145000E-03    1.0000014E-24
 -1.1140000E-03    1.0000019E-24
 -1.1135000E-03    1.0000024E-24
 -1.1130000E-03    1.0000028E-24
 -1.1125000E-03    1.0000031E-24
 -1.1120000E-03    1.0000031E-24
 -1.1115000E-03    1.0000026E-24
 -1.1110000E-03    1.0000014E-24
 -1.1105000E-03    9.9999943E-25
 -1.1100000E-03    9.9999637E-25
 -1.1094999E-03    9.9999203E-25
 -1.1089999E-03    9.9998631E-25
 -1.1084999E-03    9.9997931E-25
 -1.1080001E-03    9.9997123E-25
 -1.1075001E-03    9.9996245E-25
 -1.1070000E-03    9.9995377E-25
 -1.1065000E-03    9.9994638E-25
 -1.1060000E-03    9.9994194E-25
 -1.1055000E-03    9.9994243E-25
 -1.1050000E-03    9.9995042E-25
 -1.1045000E-03    9.9996856E-25
 -1.1040000E-03    9.9999972E-25
 -1.1035000E-03    1.0000466E-24
 -1.1030000E-03    1.0001111E-24
 -1.1025000E-03    1.0001940E-24
 -1.1020000E-03    1.0002944E-24
 -1.1015000E-03    1.0004084E-24
 -1.1010000E-03    1.0005290E-24
 -1.1005000E-03    1.0006448E-24
 -1.1000000E-03    1.0007401E-24
 -1.0995000E-03    1.0007939E-24
 -1.0990000E-03    1.0007806E-24
 -1.0985000E-03    1.0006707E-24
 -1.0980000E-03    1.0004329E-24
 -1.0975000E-03    1.0000362E-24
 -1.0970000E-03    9.9945442E-25
 -1.0965000E-03    9.9867099E-25
 -1.0960000E-03    9.9768501E-25
 -1.0955000E-03    9.9651838E-25
 -1.0950000E-03    9.9522297E-25
 -1.0945000E-03    9.9388753E-25
 -1.0939999E-03    9.9264360E-25
 -1.0934999E-03    9.9166837E-25
 -1.0930001E-03    9.9118410E-25
 -1.0925001E-03    9.9145232E-25
 -1.0920000E-03    9.9276064E-25
 -1.0915000E-03    9.9540195E-25
 -1.0910000E-03    9.9964424E-25
 -1.0905000E-03    1.0056910E-24
 -1.0900000E-03    1.0136331E-24
 -1.0895000E-03    1.0233940E-24
 -1.0890000E-03    1.0346713E-24
 -1.0885000E-03    1.0468804E-24
 -1.0880000E-03    1.0591061E-24
 -1.0875000E-03    1.0700721E-24
 -1.0870000E-03    1.0781368E-24
 -1.0865000E-03    1.0813270E-24
 -1.0860000E-03    1.0774199E-24
 -1.0855000E-03    1.0640813E-24
 -1.0850000E-03    1.0390688E-24
 -1.0845000E-03    1.0005000E-24
 -1.0840000E-03    9.4718203E-25
 -1.0835000E-03    8.7899004E-25
 -1.0830000E-03    7.9727238E-25
 -1.0825000E-03    7.0524954E-25
 -1.0820000E-03    6.0836347E-25
 -1.0815000E-03    5.1452250E-25
 -1.0810000E-03    4.3418056E-25
 -1.0805000E-03    3.8018370E-25
 -1.0800000E-03    3.6731903E-25
 -1.0795000E-03    4.1150917E-25
 -1.0790000E-03    5.2861264E-25
 -1.0784999E-03    7.3281756E-25
 -1.0779999E-03    1.0346538E-24
 -1.0775001E-03    1.4386955E-24
 -1.0770001E-03    1.9410826E-24
 -1.0765000E-03    2.5270489E-24
 -1.0760000E-03    3.1687091E-24
 -1.0755000E-03    3.8234080E-24
 -1.0750000E-03    4.4329837E-24
 -1.0745000E-03    4.9243151E-24
 -1.0740000E-03    5.2115121E-24
 -1.0735000E-03    5.2000658E-24
 -1.0730000E-03    4.7931713E-24
 -1.0725000E-03    3.9003003E-24
 -1.0720000E-03    2.4478867E-24
 -1.0715000E-03    3.9175109E-25
 -1.0710000E-03   -2.2694023E-24
 -1.0705000E-03   -5.4803974E-24
 -1.0700000E-03   -9.1171897E-24
 -1.0695000E-03   -1.2977230E-23
 -1.0690000E-03   -1.6774354E-23
 -1.0685000E-03   -2.0140062E-23
 -1.0680000E-03   -2.2632997E-23
 -1.0675000E-03   -2.3758171E-23
 -1.0670000E-03   -2.2997009E-23
 -1.0665000E-03   -1.9848566E-23
 -1.0660000E-03   -1.3881289E-23
 -1.0655000E-03   -4.7935322E-24
 -1.0650000E-03    7.5203609E-24
 -1.0645000E-03    2.2903013E-23
 -1.0640000E-03    4.0872026E-23
 -1.0634999E-03    6.0570318E-23
 -1.0629999E-03    8.0736973E-23
 -1.0625001E-03    9.9707071E-23
 -1.0620001E-03    1.1544877E-22
 -1.0615001E-03    1.2564458E-22
 -1.0610000E-03    1.2782157E-22
 -1.0605000E-03    1.1953214E-22
 -1.0600000E-03    9.8582471E-23
 -1.0595000E-03    6.3300635E-23
 -1.0590000E-03    1.2830624E-23
 -1.0585000E-03   -5.2567807E-23
 -1.0580000E-03   -1.3123943E-22
 -1.0575000E-03   -2.1990496E-22
 -1.0570000E-03   -3.1351816E-22
 -1.0565000E-03   -4.0524454E-22
 -1.0560000E-03   -4.8659566E-22
 -1.0555000E-03   -5.4774785E-22
 -1.0550000E-03   -5.7806450E-22
 -1.0545000E-03   -5.6682784E-22
 -1.0540000E-03   -5.0416795E-22
 -1.0535000E-03   -3.8215588E-22
 -1.0530000E-03   -1.9600442E-22
 -1.0525000E-03    5.4704689E-23
 -1.0520000E-03    3.6487071E-22
 -1.0515000E-03    7.2292385E-22
 -1.0510000E-03    1.1102119E-21
 -1.0505000E-03    1.5008615E-21
 -1.0500000E-03    1.8622465E-21
 -1.0495000E-03    2.1561715E-21
 -1.0490000E-03    2.3408400E-21
 -1.0485000E-03    2.3736277E-21
 -1.0479999E-03    2.2146067E-21
 -1.0474999E-03    1.8306917E-21
 -1.0470001E-03    1.2001876E-21
 -1.0465001E-03    3.1743218E-22
 -1.0460000E-03   -8.0285815E-22
 -1.0455000E-03   -2.1219974E-21
 -1.0450000E-03   -3.5749926E-21
 -1.0445000E-03   -5.0699661E-21
 -1.0440000E-03   -6.4898067E-21
 -1.0435000E-03   -7.6964261E-21
 -1.0430000E-03   -8.5378594E-21
 -1.0425000E-03   -8.8582392E-21
 -1.0420000E-03   -8.5104332E-21
 -1.0415000E-03   -7.3708441E-21
 -1.0410000E-03   -5.3555542E-21
 -1.0405000E-03   -2.4367034E-21
 -1.0400000E-03    1.3423092E-21
 -1.0395000E-03    5.8544039E-21
 -1.0390000E-03    1.0880924E-20
 -1.0385000E-03    1.6109985E-20
 -1.0380000E-03    2.1142640E-20
 -1.0375000E-03    2.5508067E-20
 -1.0370000E-03    2.8688485E-20
 -1.0365000E-03    3.0153738E-20
 -1.0360000E-03    2.9404700E-20
 -1.0355000E-03    2.6023548E-20
 -1.0350000E-03    1.9728031E-20
 -1.0345000E-03    1.0425782E-20
 -1.0340000E-03   -1.7361463E-21
 -1.0335000E-03   -1.6331974E-20
 -1.0329999E-03   -3.2633839E-20
 -1.0324999E-03   -4.9610015E-20
 -1.0319999E-03   -6.5949533E-20
 -1.0315001E-03   -8.0116811E-20
 -1.0310001E-03   -9.0437996E-20
 -1.0305000E-03   -9.5218130E-20
 -1.0300000E-03   -9.2885475E-20
 -1.0295000E-03   -8.2155921E-20
 -1.0290000E-03   -6.2207162E-20
 -1.0285000E-03   -3.2849148E-20
 -1.0280000E-03    5.3252208E-21
 -1.0275000E-03    5.0826940E-20
 -1.0270000E-03    1.0121344E-19
 -1.0265000E-03    1.5310397E-19
 -1.0260000E-03    2.0228198E-19
 -1.0255000E-03    2.4389395E-19
 -1.0250000E-03    2.7274725E-19
 -1.0245000E-03    2.8370137E-19
 -1.0240000E-03    2.7213715E-19
 -1.0235000E-03    2.3447812E-19
 -1.0230000E-03    1.6872808E-19
 -1.0225000E-03    7.4979476E-20
 -1.0220000E-03   -4.4159347E-20
 -1.0215000E-03   -1.8327409E-19
 -1.0210000E-03   -3.3404702E-19
 -1.0205000E-03   -4.8540147E-19
 -1.0200000E-03   -6.2392683E-19
 -1.0195000E-03   -7.3460370E-19
 -1.0190000E-03   -8.0182773E-19
 -1.0185000E-03   -8.1070090E-19
 -1.0180000E-03   -7.4852928E-19
 -1.0174999E-03   -6.0643444E-19
 -1.0169999E-03   -3.8095441E-19
 -1.0165001E-03   -7.5486486E-20
 -1.0160001E-03    2.9859416E-19
 -1.0155000E-03    7.2130997E-19
 -1.0150000E-03    1.1641124E-18
 -1.0145000E-03    1.5907045E-18
 -1.0140000E-03    1.9587451E-18
 -1.0135000E-03    2.2224637E-18
 -1.0130000E-03    2.3361384E-18
 -1.0125000E-03    2.2582978E-18
 -1.0120000E-03    1.9564145E-18
 -1.0115000E-03    1.4117596E-18
 -1.0110000E-03    6.2400965E-19
 -1.0105000E-03   -3.8487277E-19
 -1.0100000E-03   -1.5679919E-18
 -1.0095000E-03   -2.8526076E-18
 -1.0090000E-03   -4.1414088E-18
 -1.0085000E-03   -5.3163088E-18
 -1.0080000E-03   -6.2449481E-18
 -1.0075000E-03   -6.7898649E-18
 -1.0070000E-03   -6.8200587E-18
 -1.0065000E-03   -6.2243761E-18
 -1.0060000E-03   -4.9258759E-18
 -1.0055000E-03   -2.8960588E-18
 -1.0050000E-03   -1.6762650E-19
 -1.0045000E-03    3.1557025E-18
 -1.0040000E-03    6.8938357E-18
 -1.0035000E-03    1.0790819E-17
 -1.0030000E-03    1.4522396E-17
 -1.0025000E-03    1.7711383E-17
 -1.0019999E-03    1.9951050E-17
 -1.0014999E-03    2.0836076E-17
 -1.0010001E-03    1.9999760E-17
 -1.0005001E-03    1.7155433E-17
 -1.0000000E-03    1.2139131E-17
 -9.9950004E-04    4.9499241E-18
 -9.9900004E-04   -4.2162463E-18
 -9.9850004E-04   -1.4943618E-17
 -9.9800003E-04   -2.6588864E-17
 -9.9750003E-04   -3.8292321E-17
 -9.9700002E-04   -4.9011067E-17
 -9.9650002E-04   -5.7575251E-17
 -9.9600002E-04   -6.2767325E-17
 -9.9550001E-04   -6.3421625E-17
 -9.9500001E-04   -5.8539459E-17
 -9.9450001E-04   -4.7412457E-17
 -9.9400000E-04   -2.9744727E-17
 -9.9350000E-04   -5.7626580E-18
 -9.9299999E-04    2.3699931E-17
 -9.9249999E-04    5.7153833E-17
 -9.9199999E-04    9.2455327E-17
 -9.9149998E-04    1.2686544E-16
 -9.9099998E-04    1.5717383E-16
 -9.9049998E-04    1.7988889E-16
 -9.8999997E-04    1.9149018E-16
 -9.8949997E-04    1.8873300E-16
 -9.8899996E-04    1.6898800E-16
 -9.8849996E-04    1.3059281E-16
 -9.8799996E-04    7.3186823E-17
 -9.8749995E-04   -2.0038020E-18
 -9.8699995E-04   -9.1965358E-17
 -9.8649994E-04   -1.9181403E-16
 -9.8600006E-04   -2.9486112E-16
 -9.8550005E-04   -3.9284869E-16
 -9.8500005E-04   -4.7636667E-16
 -9.8450005E-04   -5.3544976E-16
 -9.8400004E-04   -5.6033474E-16
 -9.8350004E-04   -5.4234302E-16
 -9.8300003E-04   -4.7483407E-16
 -9.8250003E-04   -3.5415985E-16
 -9.8200003E-04   -1.8053759E-16
 -9.8150002E-04    4.1250094E-17
 -9.8100002E-04    3.0142012E-16
 -9.8050002E-04    5.8510516E-16
 -9.8000001E-04    8.7269212E-16
 -9.7950001E-04    1.1406304E-15
 -9.7900000E-04    1.3627246E-15
 -9.7850000E-04    1.5118871E-15
 -9.7800000E-04    1.5622823E-15
 -9.7749999E-04    1.4917471E-15
 -9.7699999E-04    1.2843294E-15
 -9.7649998E-04    9.3274654E-16
 -9.7599998E-04    4.4053972E-16
 -9.7549998E-04   -1.7631414E-16
 -9.7499997E-04   -8.8856509E-16
 -9.7450003E-04   -1.6538339E-15
 -9.7400002E-04   -2.4178937E-15
 -9.7350002E-04   -3.1171765E-15
 -9.7300002E-04   -3.6825011E-15
 -9.7250001E-04   -4.0439144E-15
 -9.7200001E-04   -4.1364214E-15
 -9.7150001E-04   -3.9062699E-15
 -9.7100000E-04   -3.3173516E-15
 -9.7050000E-04   -2.3571927E-15
 -9.6999999E-04   -1.0419630E-15
 -9.6949999E-04    5.8008638E-16
 -9.6899999E-04    2.4273042E-15
 -9.6849998E-04    4.3859002E-15
 -9.6799998E-04    6.3141038E-15
 -9.6749997E-04    8.0493397E-15
 -9.6700003E-04    9.4183110E-15
 -9.6650003E-04    1.0249605E-14
 -9.6600002E-04    1.0388182E-14
 -9.6550002E-04    9.7108168E-15
 -9.6500001E-04    8.1413639E-15
 -9.6450001E-04    5.6645388E-15
 -9.6400001E-04    2.3368210E-15
 -9.6350000E-04   -1.7068762E-15
 -9.6300000E-04   -6.2519917E-15
 -9.6249999E-04   -1.1009506E-14
 -9.6199999E-04   -1.5628093E-14
 -9.6149999E-04   -1.9713306E-14
 -9.6099998E-04   -2.2853254E-14
 -9.6049998E-04   -2.4649662E-14
 -9.5999998E-04   -2.4752520E-14
 -9.5949997E-04   -2.2896012E-14
 -9.5900003E-04   -1.8932921E-14
 -9.5850002E-04   -1.2864452E-14
 -9.5800002E-04   -4.8622969E-15
 -9.5750001E-04    4.7200081E-15
 -9.5700001E-04    1.5348964E-14
 -9.5650001E-04    2.6328020E-14
 -9.5600000E-04    3.6830300E-14
 -9.5550000E-04    4.5946767E-14
 -9.5500000E-04    5.2748055E-14
 -9.5449999E-04    5.6356900E-14
 -9.5399999E-04    5.6026672E-14
 -9.5349998E-04    5.1220462E-14
 -9.5299998E-04    4.1684297E-14
 -9.5249998E-04    2.7507654E-14
 -9.5199997E-04    9.1645035E-15
 -9.5150003E-04   -1.2471156E-14
 -9.5100002E-04   -3.6140138E-14
 -9.5050002E-04   -6.0246201E-14
 -9.5000002E-04   -8.2938200E-14
 -9.4950001E-04   -1.0222410E-13
 -9.4900001E-04   -1.1611199E-13
 -9.4850000E-04   -1.2277013E-13
 -9.4800000E-04   -1.2069566E-13
 -9.4750000E-04   -1.0887932E-13
 -9.4699999E-04   -8.6952242E-14
 -9.4649999E-04   -5.5300531E-14
 -9.4599999E-04   -1.5134097E-14
 -9.4549998E-04    3.1501965E-14
 -9.4499998E-04    8.1781736E-14
 -9.4449997E-04    1.3222274E-13
 -9.4400003E-04    1.7887916E-13
 -9.4350002E-04    2.1759696E-13
 -9.4300002E-04    2.4431859E-13
 -9.4250002E-04    2.5541835E-13
 -9.4200001E-04    2.4804578E-13
 -9.4150001E-04    2.2044987E-13
 -9.4100001E-04    1.7225587E-13
 -9.4050000E-04    1.0466632E-13
 -9.4000000E-04    2.0560708E-14
 -9.3949999E-04   -7.5526526E-14
 -9.3899999E-04   -1.7756292E-13
 -9.3849999E-04   -2.7831348E-13
 -9.3799998E-04   -3.6976775E-13
 -9.3749998E-04   -4.4367995E-13
 -9.3699998E-04   -4.9219244E-13
 -9.3649997E-04   -5.0850215E-13
 -9.3600003E-04   -4.8752181E-13
 -9.3550002E-04   -4.2648269E-13
 -9.3500002E-04   -3.2542320E-13
 -9.3450001E-04   -1.8751184E-13
 -9.3400001E-04   -1.9159018E-14
 -9.3350001E-04    1.7011491E-13
 -9.3300000E-04    3.6807260E-13
 -9.3250000E-04    5.6041180E-13
 -9.3200000E-04    7.3165394E-13
 -9.3149999E-04    8.6622441E-13
 -9.3099999E-04    9.4966038E-13
 -9.3049998E-04    9.6986340E-13
 -9.2999998E-04    9.1830363E-13
 -9.2949998E-04    7.9107348E-13
 -9.2899997E-04    5.8969182E-13
 -9.2850003E-04    3.2156865E-13
 -9.2800002E-04    5.6622458E-17
 -9.2750002E-04   -3.5595742E-13
 -9.2700002E-04   -7.2293712E-13
 -9.2650001E-04   -1.0740366E-12
 -9.2600001E-04   -1.3808382E-12
 -9.2550000E-04   -1.6153898E-12
 -9.2500000E-04   -1.7524142E-12
 -9.2450000E-04   -1.7715318E-12
 -9.2399999E-04   -1.6593251E-12
 -9.2349999E-04   -1.4110665E-12
 -9.2299999E-04   -1.0319404E-12
 -9.2249998E-04   -5.3761645E-13
 -9.2199998E-04    4.5935478E-14
 -9.2149997E-04    6.8344598E-13
 -9.2100003E-04    1.3321609E-12
 -9.2050002E-04    1.9444060E-12
 -9.2000002E-04    2.4707703E-12
 -9.1950002E-04    2.8637190E-12
 -9.1900001E-04    3.0813910E-12
 -9.1850001E-04    3.0913054E-12
 -9.1800001E-04    2.8736796E-12
 -9.1750000E-04    2.4240662E-12
 -9.1700000E-04    1.7550468E-12
 -9.1649999E-04    8.9676823E-13
 -9.1599999E-04   -1.0381984E-13
 -9.1549999E-04   -1.1850754E-12
 -9.1499998E-04   -2.2740742E-12
 -9.1449998E-04   -3.2911633E-12
 -9.1399997E-04   -4.1554008E-12
 -9.1349997E-04   -4.7905356E-12
 -9.1300003E-04   -5.1311069E-12
 -9.1250002E-04   -5.1282099E-12
 -9.1200002E-04   -4.7544555E-12
 -9.1150001E-04   -4.0076822E-12
 -9.1100001E-04   -2.9130429E-12
 -9.1050001E-04   -1.5231874E-12
 -9.1000000E-04    8.3614322E-14
 -9.0950000E-04    1.8074137E-12
 -9.0899999E-04    3.5324335E-12
 -9.0849999E-04    5.1345148E-12
 -9.0799999E-04    6.4897055E-12
 -9.0749998E-04    7.4834106E-12
 -9.0699998E-04    8.0194506E-12
 -9.0649998E-04    8.0283349E-12
 -9.0599997E-04    7.4740752E-12
 -9.0550003E-04    6.3589277E-12
 -9.0500002E-04    4.7255906E-12
 -9.0450002E-04    2.6565341E-12
 -9.0400001E-04    2.7034885E-13
 -9.0350001E-04   -2.2847752E-12
 -9.0300001E-04   -4.8401136E-12
 -9.0250000E-04   -7.2174627E-12
 -9.0200000E-04   -9.2414652E-12
 -9.0150000E-04   -1.0752343E-11
 -9.0099999E-04   -1.1618114E-11
 -9.0049999E-04   -1.1745342E-11
 -8.9999998E-04   -1.1087579E-11
 -8.9949998E-04   -9.6507463E-12
 -8.9899998E-04   -7.4949552E-12
 -8.9849997E-04   -4.7324809E-12
 -8.9800003E-04   -1.5219111E-12
 -8.9750002E-04    1.9412395E-12
 -8.9700002E-04    5.4368584E-12
 -8.9650002E-04    8.7346944E-12
 -8.9600001E-04    1.1609939E-11
 -8.9550001E-04    1.3858813E-11
 -8.9500000E-04    1.5313029E-11
 -8.9450000E-04    1.5852037E-11
 -8.9400000E-04    1.5412149E-11
 -8.9349999E-04    1.3991821E-11
 -8.9299999E-04    1.1652700E-11
 -8.9249999E-04    8.5163170E-12
 -8.9199998E-04    4.7566846E-12
 -8.9149998E-04    5.8932243E-13
 -8.9099997E-04   -3.7424573E-12
 -8.9050003E-04   -7.9830031E-12
 -8.9000002E-04   -1.1880379E-11
 -8.8950002E-04   -1.5201874E-11
 -8.8900002E-04   -1.7747886E-11
 -8.8850001E-04   -1.9363268E-11
 -8.8800001E-04   -1.9945457E-11
 -8.8750001E-04   -1.9449008E-11
 -8.8700000E-04   -1.7886425E-11
 -8.8650000E-04   -1.5325529E-11
 -8.8599999E-04   -1.1883845E-11
 -8.8549999E-04   -7.7206939E-12
 -8.8499999E-04   -3.0277877E-12
 -8.8449998E-04    1.9808053E-12
 -8.8399998E-04    7.0785812E-12
 -8.8349998E-04    1.2035761E-11
 -8.8299997E-04    1.6627283E-11
 -8.8250003E-04    2.0639457E-11
 -8.8200002E-04    2.3875381E-11
 -8.8150002E-04    2.6159406E-11
 -8.8100001E-04    2.7341162E-11
 -8.8050001E-04    2.7299647E-11
 -8.8000001E-04    2.5947917E-11
 -8.7950000E-04    2.3238736E-11
 -8.7900000E-04    1.9171291E-11
 -8.7850000E-04    1.3798789E-11
 -8.7799999E-04    7.2363240E-12
 -8.7749999E-04   -3.3188773E-13
 -8.7699998E-04   -8.6471889E-12
 -8.7649998E-04   -1.7374506E-11
 -8.7599998E-04   -2.6105229E-11
 -8.7549997E-04   -3.4366301E-11
 -8.7500003E-04   -4.1636541E-11
 -8.7450002E-04   -4.7370663E-11
 -8.7400002E-04   -5.1030753E-11
 -8.7350002E-04   -5.2124090E-11
 -8.7300001E-04   -5.0245374E-11
 -8.7250001E-04   -4.5120487E-11
 -8.7200000E-04   -3.6648257E-11
 -8.7150000E-04   -2.4936187E-11
 -8.7100000E-04   -1.0325931E-11
 -8.7049999E-04    6.5954429E-12
 -8.6999999E-04    2.5001789E-11
 -8.6949999E-04    4.3854080E-11
 -8.6899998E-04    6.1947364E-11
 -8.6849998E-04    7.7977597E-11
 -8.6799997E-04    9.0625625E-11
 -8.6750003E-04    9.8653696E-11
 -8.6700002E-04    1.0100815E-10
 -8.6650002E-04    9.6920486E-11
 -8.6600002E-04    8.5998410E-11
 -8.6550001E-04    6.8297902E-11
 -8.6500001E-04    4.4368301E-11
 -8.6450001E-04    1.5263495E-11
 -8.6400000E-04   -1.7485416E-11
 -8.6350000E-04   -5.1937867E-11
 -8.6299999E-04   -8.5850660E-11
 -8.6249999E-04   -1.1681905E-10
 -8.6199999E-04   -1.4244385E-10
 -8.6149998E-04   -1.6051330E-10
 -8.6099998E-04   -1.6918617E-10
 -8.6049997E-04   -1.6716112E-10
 -8.5999997E-04   -1.5381721E-10
 -8.5950003E-04   -1.2931156E-10
 -8.5900002E-04   -9.4622754E-11
 -8.5850002E-04   -5.1532032E-11
 -8.5800001E-04   -2.5392327E-12
 -8.5750001E-04    4.9284257E-11
 -8.5700001E-04    1.0049772E-10
 -8.5650000E-04    1.4753523E-10
 -8.5600000E-04    1.8697395E-10
 -8.5549999E-04    2.1580522E-10
 -8.5499999E-04    2.3168584E-10
 -8.5449999E-04    2.3314664E-10
 -8.5399998E-04    2.1973810E-10
 -8.5349998E-04    1.9209699E-10
 -8.5299998E-04    1.5192413E-10
 -8.5249997E-04    1.0187080E-10
 -8.5200003E-04    4.5339739E-11
 -8.5150002E-04   -1.3785424E-11
 -8.5100002E-04   -7.1460463E-11
 -8.5050002E-04   -1.2382317E-10
 -8.5000001E-04   -1.6752688E-10
 -8.4950001E-04   -2.0003237E-10
 -8.4900000E-04   -2.1982804E-10
 -8.4850000E-04   -2.2655314E-10
 -8.4800000E-04   -2.2100687E-10
 -8.4749999E-04   -2.0503720E-10
 -8.4699999E-04   -1.8131426E-10
 -8.4649998E-04   -1.5300645E-10
 -8.4599998E-04   -1.2338844E-10
 -8.4549998E-04   -9.5419984E-11
 -8.4499997E-04   -7.1341377E-11
 -8.4450003E-04   -5.2333006E-11
 -8.4400002E-04   -3.8284625E-11
 -8.4350002E-04   -2.7712405E-11
 -8.4300002E-04   -1.7849489E-11
 -8.4250001E-04   -4.9196983E-12
 -8.4200001E-04    1.5415044E-11
 -8.4150000E-04    4.7463311E-11
 -8.4100000E-04    9.4818070E-11
 -8.4050000E-04    1.5964190E-10
 -8.3999999E-04    2.4200150E-10
 -8.3949999E-04    3.3933503E-10
 -8.3899999E-04    4.4613321E-10
 -8.3849998E-04    5.5390392E-10
 -8.3799998E-04    6.5147077E-10
 -8.3749997E-04    7.2562834E-10
 -8.3700003E-04    7.6214390E-10
 -8.3650002E-04    7.4705853E-10
 -8.3600002E-04    6.6820349E-10
 -8.3550002E-04    5.1681392E-10
 -8.3500001E-04    2.8909550E-10
 -8.3450001E-04   -1.2417928E-11
 -8.3400001E-04   -3.7788003E-10
 -8.3350000E-04   -7.8967477E-10
 -8.3300000E-04   -1.2226109E-09
 -8.3249999E-04   -1.6448518E-09
 -8.3199999E-04   -2.0196054E-09
 -8.3149999E-04   -2.3075351E-09
 -8.3099998E-04   -2.4697786E-09
 -8.3049998E-04   -2.4713964E-09
 -8.2999998E-04   -2.2850004E-09
 -8.2949997E-04   -1.8942723E-09
 -8.2900003E-04   -1.2970469E-09
 -8.2850002E-04   -5.0763260E-10
 -8.2800002E-04    4.4193560E-10
 -8.2750001E-04    1.5019600E-09
 -8.2700001E-04    2.6066329E-09
 -8.2650001E-04    3.6771399E-09
 -8.2600000E-04    4.6262554E-09
 -8.2550000E-04    5.3642344E-09
 -8.2500000E-04    5.8056768E-09
 -8.2449999E-04    5.8769163E-09
 -8.2399999E-04    5.5233906E-09
 -8.2349998E-04    4.7163882E-09
 -8.2299998E-04    3.4585481E-09
 -8.2249998E-04    1.7875189E-09
 -8.2199997E-04   -2.2273083E-10
 -8.2150003E-04   -2.4633260E-09
 -8.2100002E-04   -4.7948161E-09
 -8.2050002E-04   -7.0544059E-09
 -8.2000002E-04   -9.0658281E-09
 -8.1950001E-04   -1.0651368E-08
 -8.1900001E-04   -1.1645313E-08
 -8.1850000E-04   -1.1907935E-08
 -8.1800000E-04   -1.1338949E-08
 -8.1750000E-04   -9.8893533E-09
 -8.1699999E-04   -7.5705593E-09
 -8.1649999E-04   -4.4598290E-09
 -8.1599999E-04   -7.0123107E-10
 -8.1549998E-04    3.4983971E-09
 -8.1499998E-04    7.8786604E-09
 -8.1449997E-04    1.2139772E-08
 -8.1400003E-04    1.5961067E-08
 -8.1350002E-04    1.9022849E-08
 -8.1300002E-04    2.1030218E-08
 -8.1250002E-04    2.1737247E-08
 -8.1200001E-04    2.0969711E-08
 -8.1150001E-04    1.8644519E-08
 -8.1100001E-04    1.4784086E-08
 -8.1050000E-04    9.5241397E-09
 -8.1000000E-04    3.1137959E-09
 -8.0949999E-04   -4.0927390E-09
 -8.0899999E-04   -1.1652938E-08
 -8.0849999E-04   -1.9060632E-08
 -8.0799998E-04   -2.5777410E-08
 -8.0749998E-04   -3.1268961E-08
 -8.0699997E-04   -3.5044046E-08
 -8.0649997E-04   -3.6693436E-08
 -8.0600003E-04   -3.5925961E-08
 -8.0550002E-04   -3.2598766E-08
 -8.0500002E-04   -2.6739151E-08
 -8.0450001E-04   -1.8555749E-08
 -8.0400001E-04   -8.4374596E-09
 -8.0350001E-04    3.0606797E-09
 -8.0300000E-04    1.5244593E-08
 -8.0250000E-04    2.7320185E-08
 -8.0200000E-04    3.8442273E-08
 -8.0149999E-04    4.7770605E-08
 -8.0099999E-04    5.4529394E-08
 -8.0049998E-04    5.8066334E-08
 -7.9999998E-04    5.7906831E-08
 -7.9949998E-04    5.3799290E-08
 -7.9899997E-04    4.5747612E-08
 -7.9850003E-04    3.4027856E-08
 -7.9800002E-04    1.9186830E-08
 -7.9750002E-04    2.0216859E-09
 -7.9700002E-04   -1.6459243E-08
 -7.9650001E-04   -3.5092661E-08
 -7.9600001E-04   -5.2630682E-08
 -7.9550000E-04   -6.7821183E-08
 -7.9500000E-04   -7.9493141E-08
 -7.9450000E-04   -8.6641279E-08
 -7.9399999E-04   -8.8504095E-08
 -7.9349999E-04   -8.4629548E-08
 -7.9299998E-04   -7.4923236E-08
 -7.9249998E-04   -5.9674804E-08
 -7.9199998E-04   -3.9559794E-08
 -7.9149997E-04   -1.5615418E-08
 -7.9100003E-04    1.0809167E-08
 -7.9050002E-04    3.8126082E-08
 -7.9000002E-04    6.4601508E-08
 -7.8950002E-04    8.8462698E-08
 -7.8900001E-04    1.0801274E-07
 -7.8850001E-04    1.2174561E-07
 -7.8800000E-04    1.2845406E-07
 -7.8750000E-04    1.2732274E-07
 -7.8700000E-04    1.1799989E-07
 -7.8649999E-04    1.0064202E-07
 -7.8599999E-04    7.5927574E-08
 -7.8549999E-04    4.5037524E-08
 -7.8499998E-04    9.6028856E-09
 -7.8449998E-04   -2.8378665E-08
 -7.8399997E-04   -6.6652866E-08
 -7.8350003E-04   -1.0283954E-07
 -7.8300002E-04   -1.3457631E-07
 -7.8250002E-04   -1.5966674E-07
 -7.8200002E-04   -1.7622378E-07
 -7.8150001E-04   -1.8279944E-07
 -7.8100001E-04   -1.7849223E-07
 -7.8050001E-04   -1.6302506E-07
 -7.8000000E-04   -1.3678803E-07
 -7.7950000E-04   -1.0084234E-07
 -7.7899999E-04   -5.6883973E-08
 -7.7849999E-04   -7.1682180E-09
 -7.7799999E-04    4.5601830E-08
 -7.7749998E-04    9.8417111E-08
 -7.7699998E-04    1.4812751E-07
 -7.7649998E-04    1.9162096E-07
 -7.7599997E-04    2.2600676E-07
 -7.7550003E-04    2.4879310E-07
 -7.7500002E-04    2.5804817E-07
 -7.7450002E-04    2.5253581E-07
 -7.7400001E-04    2.3181694E-07
 -7.7350001E-04    1.9631034E-07
 -7.7300001E-04    1.4730792E-07
 -7.7250000E-04    8.6942222E-08
 -7.7200000E-04    1.8105972E-08
 -7.7150000E-04   -5.5673766E-08
 -7.7099999E-04   -1.3040193E-07
 -7.7049999E-04   -2.0181523E-07
 -7.6999998E-04   -2.6560625E-07
 -7.6949998E-04   -3.1766135E-07
 -7.6899998E-04   -3.5430043E-07
 -7.6849997E-04   -3.7250615E-07
 -7.6800003E-04   -3.7013012E-07
 -7.6750002E-04   -3.4606384E-07
 -7.6700002E-04   -3.0036335E-07
 -7.6650002E-04   -2.3431832E-07
 -7.6600001E-04   -1.5045796E-07
 -7.6550001E-04   -5.2489739E-08
 -7.6500000E-04    5.4831133E-08
 -7.6450000E-04    1.6589887E-07
 -7.6400000E-04    2.7451563E-07
 -7.6349999E-04    3.7420179E-07
 -7.6299999E-04    4.5854509E-07
 -7.6249999E-04    5.2157236E-07
 -7.6199998E-04    5.5812484E-07
 -7.6149998E-04    5.6421669E-07
 -7.6099997E-04    5.3735403E-07
 -7.6050003E-04    4.7679373E-07
 -7.6000002E-04    3.8372110E-07
 -7.5950002E-04    2.6132946E-07
 -7.5900002E-04    1.1478775E-07
 -7.5850001E-04   -4.8911303E-08
 -7.5800001E-04   -2.2122444E-07
 -7.5750001E-04   -3.9244679E-07
 -7.5700000E-04   -5.5220346E-07
 -7.5650000E-04   -6.9002277E-07
 -7.5599999E-04   -7.9596344E-07
 -7.5549999E-04   -8.6126204E-07
 -7.5499999E-04   -8.7896211E-07
 -7.5449998E-04   -8.4448436E-07
 -7.5399998E-04   -7.5609711E-07
 -7.5349997E-04   -6.1524827E-07
 -7.5299997E-04   -4.2672667E-07
 -7.5250003E-04   -1.9862705E-07
 -7.5200002E-04    5.7895505E-08
 -7.5150002E-04    3.2908400E-07
 -7.5100001E-04    5.9923934E-07
 -7.5050001E-04    8.5155636E-07
 -7.5000001E-04    1.0690960E-06
 -7.4950000E-04    1.2358436E-06
 -7.4900000E-04    1.3377899E-06
 -7.4850000E-04    1.3639685E-06
 -7.4799999E-04    1.3073782E-06
 -7.4749999E-04    1.1657206E-06
 -7.4699998E-04    9.4189198E-07
 -7.4649998E-04    6.4417736E-07
 -7.4599998E-04    2.8611177E-07