 -1.2000001E-03    1.0000000E-24
 -1.1995001E-03    1.0000000E-24
 -1.1990000E-03    1.0000000E-24
 -1.1985000E-03    1.0000000E-24
 -1.1980000E-03    1.0000000E-24
 -1.1975000E-03    1.0000000E-24
 -1.1970000E-03    1.0000000E-24
 -1.1965000E-03    8.7664170E-25
 -1.1960000E-03   -2.2972889E-25
 -1.1955000E-03   -1.7125976E-23
 -1.1950000E-03   -2.1957547E-24
 -1.1945000E-03    2.6635935E-22
 -1.1940000E-03    7.7176259E-22
 -1.1935000E-03    2.2166633E-21
 -1.1930000E-03    1.5773006E-21
 -1.1925000E-03    6.3064953E-21
 -1.1920000E-03    1.4698941E-20
 -1.1915000E-03    1.5006971E-20
 -1.1910000E-03    1.3293888E-20
 -1.1905000E-03   -8.6302371E-21
 -1.1900000E-03   -2.2469946E-20
 -1.1895000E-03    6.0703321E-20
 -1.1890000E-03    1.1153896E-19
 -1.1885000E-03    9.7699304E-20
 -1.1880000E-03    1.1186649E-18
 -1.1875000E-03    1.6222279E-18
 -1.1870000E-03    3.1605965E-18
 -1.1865000E-03    1.5945491E-18
 -1.1860000E-03   -4.1107191E-18
 -1.1854999E-03   -1.3955210E-17
 -1.1849999E-03   -1.9660478E-17
 -1.1845001E-03   -1.5017694E-17
 -1.1840001E-03   -6.2356882E-18
 -1.1835000E-03   -1.5929040E-18
 -1.1830000E-03   -5.2285623E-18
 -1.1825000E-03   -2.5421106E-17
 -1.1820000E-03   -8.9075467E-17
 -1.1815000E-03   -1.6928672E-16
 -1.1810000E-03   -2.4949798E-16
 -1.1805000E-03   -3.4626609E-16
 -1.1800000E-03   -4.0992046E-16
 -1.1795000E-03   -6.0602989E-16
 -1.1790000E-03   -9.3459445E-16
 -1.1785000E-03   -1.1969314E-15
 -1.1780000E-03   -1.3930408E-15
 -1.1775000E-03   -1.8540603E-15
 -1.1770000E-03   -2.3150797E-15
 -1.1765000E-03   -2.5111893E-15
 -1.1760000E-03   -2.8397542E-15
 -1.1755000E-03   -3.4332293E-15
 -1.1750000E-03   -1.8411951E-15
 -1.1745000E-03    4.1311464E-16
 -1.1740000E-03    2.0051491E-15
 -1.1735000E-03    3.8620937E-15
 -1.1730000E-03    4.6593982E-15
 -1.1725000E-03    5.4567019E-15
 -1.1720000E-03    7.3136467E-15
 -1.1715000E-03    5.9916692E-15
 -1.1710000E-03    2.5504103E-15
 -1.1704999E-03   -8.9084848E-16
 -1.1699999E-03   -3.2724652E-15
 -1.1695001E-03   -5.6540821E-15
 -1.1690001E-03   -8.0356999E-15
 -1.1685000E-03   -1.2536599E-14
 -1.1680000E-03   -2.1011152E-14
 -1.1675000E-03   -3.4783909E-14
 -1.1670000E-03   -5.7033791E-14
 -1.1665000E-03   -7.0806540E-14
 -1.1660000E-03   -6.3386484E-14
 -1.1655000E-03   -5.1727858E-14
 -1.1650000E-03   -2.3114984E-14
 -1.1645000E-03   -2.9792332E-15
 -1.1640000E-03    2.5633650E-14
 -1.1635000E-03    6.2723657E-14
 -1.1630000E-03    9.9813671E-14
 -1.1625000E-03    1.4538080E-13
 -1.1620000E-03    2.1426002E-13
 -1.1615000E-03    1.9730832E-13
 -1.1610000E-03    2.1002654E-13
 -1.1605000E-03    2.1426761E-13
 -1.1600000E-03    1.5069170E-13
 -1.1595000E-03    8.7115794E-14
 -1.1590000E-03   -4.4277096E-14
 -1.1585000E-03   -2.6044122E-13
 -1.1580000E-03   -3.7487984E-13
 -1.1575000E-03   -4.2150143E-13
 -1.1570000E-03   -4.0030604E-13
 -1.1565000E-03   -4.1301915E-13
 -1.1560000E-03   -3.5791533E-13
 -1.1555000E-03   -2.1380171E-13
 -1.1549999E-03   -1.5445937E-13
 -1.1544999E-03   -9.5117050E-14
 -1.1540001E-03   -3.5774765E-14
 -1.1535001E-03    5.7476030E-14
 -1.1530000E-03    1.5092995E-14
 -1.1525000E-03    6.6185105E-15
 -1.1520000E-03   -4.0875791E-13
 -1.1515000E-03   -1.1971276E-12
 -1.1510000E-03   -1.9176802E-12
 -1.1505000E-03   -2.8416837E-12
 -1.1500000E-03   -3.9521841E-12
 -1.1495000E-03   -4.9355268E-12
 -1.1490000E-03   -5.8849614E-12
 -1.1485000E-03   -6.5631276E-12
 -1.1480000E-03   -6.9361170E-12
 -1.1475000E-03   -7.3769237E-12
 -1.1470000E-03   -7.5803704E-12
 -1.1465000E-03   -7.6142755E-12
 -1.1460000E-03   -6.6987431E-12
 -1.1455000E-03   -4.9015891E-12
 -1.1450000E-03   -1.4090115E-12
 -1.1445000E-03    2.3887426E-12
 -1.1440000E-03    7.8819208E-12
 -1.1435000E-03    1.2696929E-11
 -1.1430000E-03    1.7105034E-11
 -1.1425000E-03    2.1106240E-11
 -1.1420000E-03    2.3886740E-11
 -1.1415000E-03    2.4632728E-11
 -1.1410000E-03    2.2055685E-11
 -1.1405000E-03    1.4934904E-11
 -1.1399999E-03    5.1692626E-12
 -1.1394999E-03   -6.9021559E-12
 -1.1390001E-03   -1.9923011E-11
 -1.1385001E-03   -3.4842743E-11
 -1.1380001E-03   -4.8134871E-11
 -1.1375000E-03   -6.0070657E-11
 -1.1370000E-03   -6.7666157E-11
 -1.1365000E-03   -7.0378828E-11
 -1.1360000E-03   -6.8751220E-11
 -1.1355000E-03   -6.3868390E-11
 -1.1350000E-03   -5.6815413E-11
 -1.1345000E-03   -4.8134833E-11
 -1.1340000E-03   -3.6470302E-11
 -1.1335000E-03   -2.2093098E-11
 -1.1330000E-03   -3.3755988E-12
 -1.1325000E-03    1.5884436E-11
 -1.1320000E-03    3.8399690E-11
 -1.1315000E-03    5.7659728E-11
 -1.1310000E-03    7.0951869E-11
 -1.1305000E-03    7.6377238E-11
 -1.1300000E-03    7.4749630E-11
 -1.1295000E-03    6.6340322E-11
 -1.1290000E-03    4.8436630E-11
 -1.1285000E-03    3.1075476E-11
 -1.1280000E-03    2.8905330E-11
 -1.1275000E-03    3.4330688E-11
 -1.1270000E-03    4.1926195E-11
 -1.1265000E-03    5.7117203E-11
 -1.1260000E-03    8.7499223E-11
 -1.1255000E-03    1.1516856E-10
 -1.1250000E-03    1.5206100E-10
 -1.1244999E-03    1.8542697E-10
 -1.1239999E-03    2.0902727E-10
 -1.1235001E-03    2.1689403E-10
 -1.1230001E-03    2.0956979E-10
 -1.1225000E-03    1.6318295E-10
 -1.1220000E-03    8.2073820E-11
 -1.1215000E-03   -1.4226319E-11
 -1.1210000E-03   -1.1595182E-10
 -1.1205000E-03   -2.1550717E-10
 -1.1200000E-03   -3.0312672E-10
 -1.1195000E-03   -3.7636905E-10
 -1.1190000E-03   -4.3659054E-10
 -1.1185000E-03   -4.6968524E-10
 -1.1180000E-03   -4.5720686E-10
 -1.1175000E-03   -4.0566592E-10
 -1.1170000E-03   -3.3242353E-10
 -1.1165000E-03   -2.2445887E-10
 -1.1160000E-03   -1.0564348E-10
 -1.1155000E-03    1.3171882E-11
 -1.1150000E-03    1.2113650E-10
 -1.1145000E-03    2.1065488E-10
 -1.1140000E-03    2.8091324E-10
 -1.1135000E-03    3.1644928E-10
 -1.1130000E-03    3.1726302E-10
 -1.1125000E-03    2.6599331E-10
 -1.1120000E-03    1.8000132E-10
 -1.1115000E-03    6.3627333E-11
 -1.1110000E-03   -6.1427183E-11
 -1.1105000E-03   -1.7346084E-10
 -1.1100000E-03   -2.8115421E-10
 -1.1094999E-03   -3.7148640E-10
 -1.1089999E-03   -4.6073353E-10
 -1.1084999E-03   -5.4943816E-10
 -1.1080001E-03   -6.2946220E-10
 -1.1075001E-03   -7.0948630E-10
 -1.1070000E-03   -7.8082979E-10
 -1.1065000E-03   -8.3481211E-10
 -1.1060000E-03   -8.6275265E-10
 -1.1055000E-03   -8.8201257E-10
 -1.1050000E-03   -9.0127256E-10
 -1.1045000E-03   -8.8581015E-10
 -1.1040000E-03   -8.7902829E-10
 -1.1035000E-03   -8.7007634E-10
 -1.1030000E-03   -8.4701834E-10
 -1.1025000E-03   -7.7621720E-10
 -1.1020000E-03   -6.8805484E-10
 -1.1015000E-03   -5.5648963E-10
 -1.1010000E-03   -3.9020212E-10
 -1.1005000E-03   -1.7183122E-10
 -1.1000000E-03    8.1261928E-11
 -1.0995000E-03    3.4303552E-10
 -1.0990000E-03    5.7876731E-10
 -1.0985000E-03    7.8411683E-10
 -1.0980000E-03    9.7210517E-10
 -1.0975000E-03    1.1036697E-09
 -1.0970000E-03    1.2005119E-09
 -1.0965000E-03    1.2279093E-09
 -1.0960000E-03    1.1858622E-09
 -1.0955000E-03    1.0570093E-09
 -1.0950000E-03    9.1079522E-10
 -1.0945000E-03    7.2985895E-10
 -1.0939999E-03    5.3156174E-10
 -1.0934999E-03    2.9854233E-10
 -1.0930001E-03    7.4203740E-11
 -1.0925001E-03   -1.6315556E-10
 -1.0920000E-03   -3.7881323E-10
 -1.0915000E-03   -4.9030380E-10
 -1.0910000E-03   -5.4971083E-10
 -1.0905000E-03   -5.0495091E-10
 -1.0900000E-03   -3.9074638E-10
 -1.0895000E-03   -2.0709726E-10
 -1.0890000E-03   -5.8170618E-11
 -1.0885000E-03    5.6033574E-11
 -1.0880000E-03    1.1815422E-10
 -1.0875000E-03    1.2819117E-10
 -1.0870000E-03    1.5124886E-10
 -1.0865000E-03    1.7430637E-10
 -1.0860000E-03    1.4528027E-10
 -1.0855000E-03    1.2087155E-11
 -1.0850000E-03   -1.5582834E-10
 -1.0845000E-03   -2.8902164E-10
 -1.0840000E-03   -3.1804800E-10
 -1.0835000E-03   -2.0818512E-10
 -1.0830000E-03   -2.8877649E-11
 -1.0825000E-03    2.8931929E-10
 -1.0820000E-03    7.6376666E-10
 -1.0815000E-03    1.2034916E-09
 -1.0810000E-03    1.6171751E-09
 -1.0805000E-03    1.8398859E-09
 -1.0800000E-03    1.9931523E-09
 -1.0795000E-03    2.0075295E-09
 -1.0790000E-03    2.0913511E-09
 -1.0784999E-03    2.1057280E-09
 -1.0779999E-03    2.1895501E-09
 -1.0775001E-03    2.3428171E-09
 -1.0770001E-03    2.4266396E-09
 -1.0765000E-03    2.5104627E-09
 -1.0760000E-03    2.5942863E-09
 -1.0755000E-03    2.7475551E-09
 -1.0750000E-03    2.9095046E-09
 -1.0745000E-03    3.1756211E-09
 -1.0740000E-03    3.4417378E-09
 -1.0735000E-03    3.5689645E-09
 -1.0730000E-03    3.7656349E-09
 -1.0725000E-03    3.8928594E-09
 -1.0720000E-03    3.8117491E-09
 -1.0715000E-03    3.5223038E-09
 -1.0710000E-03    3.0245237E-09
 -1.0705000E-03    2.4920208E-09
 -1.0700000E-03    1.8206279E-09
 -1.0695000E-03    1.0103456E-09
 -1.0690000E-03    8.7215672E-11
 -1.0685000E-03   -9.4008101E-10
 -1.0680000E-03   -1.8632100E-09
 -1.0675000E-03   -2.6821714E-09
 -1.0670000E-03   -3.2927976E-09
 -1.0665000E-03   -3.6950882E-09
 -1.0660000E-03   -3.8890438E-09
 -1.0655000E-03   -3.8746633E-09
 -1.0650000E-03   -3.7213925E-09
 -1.0645000E-03   -3.4292311E-09
 -1.0640000E-03   -2.8072067E-09
 -1.0634999E-03   -1.6817082E-09
 -1.0629999E-03   -9.6138937E-11
 -1.0625001E-03    1.6630415E-09
 -1.0620001E-03    3.8041659E-09
 -1.0615001E-03    6.1536221E-09
 -1.0610000E-03    8.3989100E-09
 -1.0605000E-03    1.0331695E-08
 -1.0600000E-03    1.1882531E-08
 -1.0595000E-03    1.2843088E-08
 -1.0590000E-03    1.3143919E-08
 -1.0585000E-03    1.2767662E-08
 -1.0580000E-03    1.1566750E-08
 -1.0575000E-03    9.3762527E-09
 -1.0570000E-03    6.6388788E-09
 -1.0565000E-03    3.6063661E-09
 -1.0560000E-03    4.1760417E-10
 -1.0555000E-03   -2.8926830E-09
 -1.0550000E-03   -6.0119949E-09
 -1.0545000E-03   -8.6799146E-09
 -1.0540000E-03   -1.0618664E-08
 -1.0535000E-03   -1.1741436E-08
 -1.0530000E-03   -1.1996150E-08
 -1.0525000E-03   -1.1348082E-08
 -1.0520000E-03   -9.6323030E-09
 -1.0515000E-03   -7.3696480E-09
 -1.0510000E-03   -4.4125481E-09
 -1.0505000E-03   -1.2384358E-09
 -1.0500000E-03    1.9573752E-09
 -1.0495000E-03    4.9795719E-09
 -1.0490000E-03    7.7153066E-09
 -1.0485000E-03    9.6350643E-09
 -1.0479999E-03    1.0582594E-08
 -1.0474999E-03    1.0531856E-08
 -1.0470001E-03    9.4481294E-09
 -1.0465001E-03    7.2706485E-09
 -1.0460000E-03    4.2251114E-09
 -1.0455000E-03    6.5874117E-10
 -1.0450000E-03   -3.3069323E-09
 -1.0445000E-03   -7.2552422E-09
 -1.0440000E-03   -1.1029937E-08
 -1.0435000E-03   -1.4301155E-08
 -1.0430000E-03   -1.6860563E-08
 -1.0425000E-03   -1.8265448E-08
 -1.0420000E-03   -1.8485432E-08
 -1.0415000E-03   -1.7503154E-08
 -1.0410000E-03   -1.5266533E-08
 -1.0405000E-03   -1.2179214E-08
 -1.0400000E-03   -8.2151601E-09
 -1.0395000E-03   -3.9299262E-09
 -1.0390000E-03    8.7613844E-10
 -1.0385000E-03    5.8297691E-09
 -1.0380000E-03    1.0609784E-08
 -1.0375000E-03    1.4608542E-08
 -1.0370000E-03    1.8112503E-08
 -1.0365000E-03    2.0939376E-08
 -1.0360000E-03    2.2820062E-08
 -1.0355000E-03    2.3546230E-08
 -1.0350000E-03    2.3109198E-08
 -1.0345000E-03    2.1691262E-08
 -1.0340000E-03    1.9353184E-08
 -1.0335000E-03    1.6338022E-08
 -1.0329999E-03    1.2611055E-08
 -1.0324999E-03    8.2243670E-09
 -1.0319999E-03    3.7074714E-09
 -1.0315001E-03   -1.1566430E-09
 -1.0310001E-03   -6.2811720E-09
 -1.0305000E-03   -1.1336254E-08
 -1.0300000E-03   -1.5870498E-08
 -1.0295000E-03   -1.9779739E-08
 -1.0290000E-03   -2.2855643E-08
 -1.0285000E-03   -2.5028765E-08
 -1.0280000E-03   -2.6299107E-08
 -1.0275000E-03   -2.6666667E-08
 -1.0270000E-03   -2.6131447E-08
 -1.0265000E-03   -2.4624004E-08
 -1.0260000E-03   -2.2074893E-08
 -1.0255000E-03   -1.8136889E-08
 -1.0250000E-03   -1.3087773E-08
 -1.0245000E-03   -7.0751121E-09
 -1.0240000E-03   -6.8050726E-10
 -1.0235000E-03    6.3390986E-09
 -1.0230000E-03    1.3219815E-08
 -1.0225000E-03    1.9267196E-08
 -1.0220000E-03    2.4203461E-08
 -1.0215000E-03    2.7889721E-08
 -1.0210000E-03    3.0187085E-08
 -1.0205000E-03    3.0609442E-08
 -1.0200000E-03    2.8948458E-08
 -1.0195000E-03    2.5412467E-08
 -1.0190000E-03    1.9758412E-08
 -1.0185000E-03    1.2715462E-08
 -1.0180000E-03    4.5613975E-09
 -1.0174999E-03   -4.2176702E-09
 -1.0169999E-03   -1.2580069E-08
 -1.0165001E-03   -1.9970242E-08
 -1.0160001E-03   -2.5277071E-08
 -1.0155000E-03   -2.8778334E-08
 -1.0150000E-03   -3.0057365E-08
 -1.0145000E-03   -2.8419711E-08
 -1.0140000E-03   -2.4351488E-08
 -1.0135000E-03   -1.7783250E-08
 -1.0130000E-03   -9.0969454E-09
 -1.0125000E-03    1.7074229E-09
 -1.0120000E-03    1.3761795E-08
 -1.0115000E-03    2.6580057E-08
 -1.0110000E-03    3.8981646E-08
 -1.0105000E-03    5.0827669E-08
 -1.0100000E-03    6.1284794E-08
 -1.0095000E-03    6.9380782E-08
 -1.0090000E-03    7.4282319E-08
 -1.0085000E-03    7.5572714E-08
 -1.0080000E-03    7.2488092E-08
 -1.0075000E-03    6.5965949E-08
 -1.0070000E-03    5.6804907E-08
 -1.0065000E-03    4.4796629E-08
 -1.0060000E-03    3.1052235E-08
 -1.0055000E-03    1.5780056E-08
 -1.0050000E-03   -4.7668949E-11
 -1.0045000E-03   -1.5319829E-08
 -1.0040000E-03   -2.9341974E-08
 -1.0035000E-03   -4.0447429E-08
 -1.0030000E-03   -4.7663971E-08
 -1.0025000E-03   -5.0991595E-08
 -1.0019999E-03   -4.9562242E-08
 -1.0014999E-03   -4.3098144E-08
 -1.0010001E-03   -3.1981248E-08
 -1.0005001E-03   -1.7808777E-08
 -1.0000000E-03   -1.4140754E-09
 -9.9950004E-04    1.5536180E-08
 -9.9900004E-04    3.2069767E-08
 -9.9850004E-04    4.6520000E-08
 -9.9800003E-04    5.7775772E-08
 -9.9750003E-04    6.4587070E-08
 -9.9700002E-04    6.6224722E-08
 -9.9650002E-04    6.1890120E-08
 -9.9600002E-04    5.1513812E-08
 -9.9550001E-04    3.5443030E-08
 -9.9500001E-04    1.4788885E-08
 -9.9450001E-04   -9.3375023E-09
 -9.9400000E-04   -3.5547234E-08
 -9.9350000E-04   -6.2590296E-08
 -9.9299999E-04   -8.8800029E-08
 -9.9249999E-04   -1.1237084E-07
 -9.9199999E-04   -1.3045552E-07
 -9.9149998E-04   -1.4194293E-07
 -9.9099998E-04   -1.4599975E-07
 -9.9049998E-04   -1.4175789E-07
 -9.8999997E-04   -1.3043268E-07
 -9.8949997E-04   -1.1202410E-07
 -9.8899996E-04   -8.6532147E-08
 -9.8849996E-04   -5.5484609E-08
 -9.8799996E-04   -2.0548171E-08
 -9.8749995E-04    1.6332718E-08
 -9.8699995E-04    5.2935825E-08
 -9.8649994E-04    8.7316685E-08
 -9.8600006E-04    1.1808639E-07
 -9.8550005E-04    1.4413385E-07
 -9.8500005E-04    1.6490348E-07
 -9.8450005E-04    1.7907584E-07
 -9.8400004E-04    1.8574815E-07
 -9.8350004E-04    1.8464264E-07
 -9.8300003E-04    1.7534263E-07
 -9.8250003E-04    1.5812593E-07
 -9.8200003E-04    1.3327032E-07
 -9.8150002E-04    1.0244247E-07
 -9.8100002E-04    6.7031280E-08
 -9.8050002E-04    2.8703438E-08
 -9.8000001E-04   -1.1013270E-08
 -9.7950001E-04   -5.1007731E-08
 -9.7900000E-04   -9.0307708E-08
 -9.7850000E-04   -1.2585762E-07
 -9.7800000E-04   -1.5460195E-07
 -9.7749999E-04   -1.7563789E-07
 -9.7699999E-04   -1.8743766E-07
 -9.7649998E-04   -1.8975823E-07
 -9.7599998E-04   -1.8207875E-07
 -9.7549998E-04   -1.6460758E-07
 -9.7499997E-04   -1.3810863E-07
 -9.7450003E-04   -1.0383190E-07
 -9.7400002E-04   -6.3721856E-08
 -9.7350002E-04   -2.0972957E-08
 -9.7300002E-04    2.1081453E-08
 -9.7250001E-04    6.0635806E-08
 -9.7200001E-04    9.6162339E-08
 -9.7150001E-04    1.2446658E-07
 -9.7100000E-04    1.4540969E-07
 -9.7050000E-04    1.5746384E-07
 -9.6999999E-04    1.6028187E-07
 -9.6949999E-04    1.5507904E-07
 -9.6899999E-04    1.4084844E-07
 -9.6849998E-04    1.1988172E-07
 -9.6799998E-04    9.4262248E-08
 -9.6749997E-04    6.5587265E-08
 -9.6700003E-04    3.6634550E-08
 -9.6650003E-04    9.2096650E-09
 -9.6600002E-04   -1.5159614E-08
 -9.6550002E-04   -3.5084398E-08
 -9.6500001E-04   -4.8342464E-08
 -9.6450001E-04   -5.4794931E-08
 -9.6400001E-04   -5.3469584E-08
 -9.6350000E-04   -4.4505324E-08
 -9.6300000E-04   -2.9429948E-08
 -9.6249999E-04   -9.7712487E-09
 -9.6199999E-04    1.1936031E-08
 -9.6149999E-04    3.3434933E-08
 -9.6099998E-04    5.2017111E-08
 -9.6049998E-04    6.5390878E-08
 -9.5999998E-04    7.3764582E-08
 -9.5949997E-04    7.5888209E-08
 -9.5900003E-04    7.1483996E-08
 -9.5850002E-04    6.0829734E-08
 -9.5800002E-04    4.4758760E-08
 -9.5750001E-04    2.3826660E-08
 -9.5700001E-04   -7.1654344E-10
 -9.5650001E-04   -2.5537494E-08
 -9.5600000E-04   -4.7858393E-08
 -9.5550000E-04   -6.5318112E-08
 -9.5500000E-04   -7.7638859E-08
 -9.5449999E-04   -8.2737309E-08
 -9.5399999E-04   -7.9918998E-08
 -9.5349998E-04   -6.8558947E-08
 -9.5299998E-04   -4.9073826E-08
 -9.5249998E-04   -2.2192824E-08
 -9.5199997E-04    1.0347922E-08
 -9.5150003E-04    4.6430333E-08
 -9.5100002E-04    8.2929382E-08
 -9.5050002E-04    1.1734505E-07
 -9.5000002E-04    1.4537174E-07
 -9.4950001E-04    1.6395391E-07
 -9.4900001E-04    1.7086931E-07
 -9.4850000E-04    1.6528460E-07
 -9.4800000E-04    1.4692203E-07
 -9.4750000E-04    1.1605937E-07
 -9.4699999E-04    7.1863319E-08
 -9.4649999E-04    1.8222790E-08
 -9.4599999E-04   -4.1667743E-08
 -9.4549998E-04   -1.0155824E-07
 -9.4499998E-04   -1.5745563E-07
 -9.4449997E-04   -2.0554043E-07
 -9.4400003E-04   -2.4140292E-07
 -9.4350002E-04   -2.6198748E-07
 -9.4300002E-04   -2.6590527E-07
 -9.4250002E-04   -2.5121184E-07
 -9.4200001E-04   -2.1929611E-07
 -9.4150001E-04   -1.7182477E-07
 -9.4100001E-04   -1.1102004E-07
 -9.4050000E-04   -4.3270859E-08
 -9.4000000E-04    2.8922745E-08
 -9.3949999E-04    1.0125519E-07
 -9.3899999E-04    1.6983758E-07
 -9.3849999E-04    2.3039904E-07
 -9.3799998E-04    2.7974511E-07
 -9.3749998E-04    3.1513275E-07
 -9.3699998E-04    3.3524250E-07
 -9.3649997E-04    3.3993555E-07
 -9.3600003E-04    3.2823959E-07
 -9.3550002E-04    3.0334920E-07
 -9.3500002E-04    2.6762538E-07
 -9.3450001E-04    2.2370715E-07
 -9.3400001E-04    1.7367782E-07
 -9.3350001E-04    1.2017631E-07
 -9.3300000E-04    6.6397078E-08
 -9.3250000E-04    1.4388737E-08
 -9.3200000E-04   -3.4841769E-08
 -9.3149999E-04   -8.0218051E-08
 -9.3099999E-04   -1.2052483E-07
 -9.3049998E-04   -1.5697742E-07
 -9.2999998E-04   -1.8759664E-07
 -9.2949998E-04   -2.1226099E-07
 -9.2899997E-04   -2.3055382E-07
 -9.2850003E-04   -2.4318692E-07
 -9.2800002E-04   -2.5047285E-07
 -9.2750002E-04   -2.5202959E-07
 -9.2700002E-04   -2.4511417E-07
 -9.2650001E-04   -2.2972651E-07
 -9.2600001E-04   -2.0607497E-07
 -9.2550000E-04   -1.7506230E-07
 -9.2500000E-04   -1.3786907E-07
 -9.2450000E-04   -9.5745243E-08
 -9.2399999E-04   -5.0704731E-08
 -9.2349999E-04   -5.8030798E-09
 -9.2299999E-04    3.4931926E-08
 -9.2249998E-04    6.7889168E-08
 -9.2199998E-04    9.0568619E-08
 -9.2149997E-04    1.0130361E-07
 -9.2100003E-04    9.9816354E-08
 -9.2050002E-04    8.3745711E-08
 -9.2000002E-04    5.4063896E-08
 -9.1950002E-04    1.1743120E-08
 -9.1900001E-04   -3.9605506E-08
 -9.1850001E-04   -9.7412531E-08
 -9.1800001E-04   -1.5827518E-07
 -9.1750000E-04   -2.1719343E-07
 -9.1700000E-04   -2.6944502E-07
 -9.1649999E-04   -3.1086330E-07
 -9.1599999E-04   -3.3922595E-07
 -9.1549999E-04   -3.5119967E-07
 -9.1499998E-04   -3.4734001E-07
 -9.1449998E-04   -3.2375794E-07
 -9.1399997E-04   -2.8156470E-07
 -9.1349997E-04   -2.2298241E-07
 -9.1300003E-04   -1.5092779E-07
 -9.1250002E-04   -6.8178615E-08
 -9.1200002E-04    1.9640080E-08
 -9.1150001E-04    1.0801438E-07
 -9.1100001E-04    1.9215258E-07
 -9.1050001E-04    2.6865186E-07
 -9.1000000E-04    3.3292883E-07
 -9.0950000E-04    3.8415013E-07
 -9.0899999E-04    4.2009353E-07
 -9.0849999E-04    4.4298122E-07
 -9.0799999E-04    4.5114652E-07
 -9.0749998E-04    4.4458946E-07
 -9.0699998E-04    4.2511556E-07
 -9.0649998E-04    3.9411378E-07
 -9.0599997E-04    3.5408411E-07
 -9.0550003E-04    3.0467942E-07
 -9.0500002E-04    2.4610807E-07
 -9.0450002E-04    1.8080061E-07
 -9.0400001E-04    1.0896545E-07
 -9.0350001E-04    3.0324859E-08
 -9.0300001E-04   -5.2065591E-08
 -9.0250000E-04   -1.3792811E-07
 -9.0200000E-04   -2.2379044E-07
 -9.0150000E-04   -3.0756928E-07
 -9.0099999E-04   -3.8023683E-07
 -9.0049999E-04   -4.3762648E-07
 -8.9999998E-04   -4.7612713E-07
 -8.9949998E-04   -4.9351661E-07
 -8.9899998E-04   -4.8757272E-07
 -8.9849997E-04   -4.5607328E-07
 -8.9800003E-04   -3.9582389E-07
 -8.9750002E-04   -3.0932458E-07
 -8.9700002E-04   -1.9921426E-07
 -8.9650002E-04   -7.3895734E-08
 -8.9600001E-04    6.0589294E-08
 -8.9550001E-04    1.9372000E-07
 -8.9500000E-04    3.1476728E-07
 -8.9450000E-04    4.1525880E-07
 -8.9400000E-04    4.8436135E-07
 -8.9349999E-04    5.1374150E-07
 -8.9299999E-04    4.9895499E-07
 -8.9249999E-04    4.4139057E-07
 -8.9199998E-04    3.4438173E-07
 -8.9149998E-04    2.1515073E-07
 -8.9099997E-04    6.2030921E-08
 -8.9050003E-04   -1.0219988E-07
 -8.9000002E-04   -2.6087497E-07
 -8.8950002E-04   -4.0010545E-07
 -8.8900002E-04   -5.0419686E-07
 -8.8850001E-04   -5.6231590E-07
 -8.8800001E-04   -5.6862928E-07
 -8.8750001E-04   -5.2290255E-07
 -8.8700000E-04   -4.1918966E-07
 -8.8650000E-04   -2.6721284E-07
 -8.8599999E-04   -7.5791597E-08
 -8.8549999E-04    1.3993518E-07
 -8.8499999E-04    3.6857855E-07
 -8.8449998E-04    5.8902737E-07
 -8.8399998E-04    7.8419822E-07
 -8.8349998E-04    9.3548005E-07
 -8.8299997E-04    1.0328728E-06
 -8.8250003E-04    1.0623487E-06
 -8.8200002E-04    1.0172065E-06
 -8.8150002E-04    8.9919956E-07
 -8.8100001E-04    7.1980372E-07
 -8.8050001E-04    4.8415779E-07
 -8.8000001E-04    2.0490076E-07
 -8.7950000E-04   -9.9634043E-08
 -8.7900000E-04   -4.1416880E-07
 -8.7850000E-04   -7.1648117E-07
 -8.7799999E-04   -9.8518240E-07
 -8.7749999E-04   -1.2002723E-06
 -8.7699998E-04   -1.3428621E-06
 -8.7649998E-04   -1.4051740E-06
 -8.7599998E-04   -1.3847077E-06
 -8.7549997E-04   -1.2795193E-06
 -8.7500003E-04   -1.0940529E-06
 -8.7450002E-04   -8.4469747E-07
 -8.7400002E-04   -5.4673086E-07
 -8.7350002E-04   -2.2383372E-07
 -8.7300001E-04    9.9966122E-08
 -8.7250001E-04    4.0404367E-07
 -8.7200000E-04    6.6725300E-07
 -8.7150000E-04    8.7080946E-07
 -8.7100000E-04    9.9762951E-07
 -8.7049999E-04    1.0401438E-06
 -8.6999999E-04    9.9932458E-07
 -8.6949999E-04    8.8350509E-07
 -8.6899998E-04    7.0615766E-07
 -8.6849998E-04    4.8381003E-07
 -8.6799997E-04    2.3465677E-07
 -8.6750003E-04   -5.7464997E-09
 -8.6700002E-04   -2.2031635E-07
 -8.6650002E-04   -3.8738605E-07
 -8.6600002E-04   -4.9591392E-07
 -8.6550001E-04   -5.3819156E-07
 -8.6500001E-04   -5.1310781E-07
 -8.6450001E-04   -4.2285015E-07
 -8.6400000E-04   -2.8054367E-07
 -8.6350000E-04   -1.0594530E-07
 -8.6299999E-04    7.3861528E-08
 -8.6249999E-04    2.3130728E-07
 -8.6199999E-04    3.5208637E-07
 -8.6149998E-04    4.1883760E-07
 -8.6099998E-04    4.2503316E-07
 -8.6049997E-04    3.6956192E-07
 -8.5999997E-04    2.5603489E-07
 -8.5950003E-04    9.9729888E-08
 -8.5900002E-04   -7.8380850E-08
 -8.5850002E-04   -2.6357509E-07
 -8.5800001E-04   -4.3738055E-07
 -8.5750001E-04   -5.7695001E-07
 -8.5700001E-04   -6.6832507E-07
 -8.5650000E-04   -6.9723478E-07
 -8.5600000E-04   -6.5565831E-07
 -8.5549999E-04   -5.3533171E-07
 -8.5499999E-04   -3.3806052E-07
 -8.5449999E-04   -7.1622409E-08
 -8.5399998E-04    2.4620476E-07
 -8.5349998E-04    5.9903215E-07
 -8.5299998E-04    9.5991527E-07
 -8.5249997E-04    1.3057985E-06
 -8.5200003E-04    1.6118208E-06
 -8.5150002E-04    1.8627043E-06
 -8.5100002E-04    2.0358791E-06
 -8.5050002E-04    2.1229428E-06
 -8.5000001E-04    2.1198673E-06
 -8.4950001E-04    2.0194304E-06
 -8.4900000E-04    1.8244101E-06
 -8.4850000E-04    1.5467505E-06
 -8.4800000E-04    1.2017294E-06
 -8.4749999E-04    8.0115251E-07
 -8.4699999E-04    3.6626977E-07
 -8.4649998E-04   -8.2571489E-08
 -8.4599998E-04   -5.2807951E-07
 -8.4549998E-04   -9.5539315E-07
 -8.4499997E-04   -1.3498595E-06
 -8.4450003E-04   -1.6996034E-06
 -8.4400002E-04   -1.9946249E-06
 -8.4350002E-04   -2.2333961E-06
 -8.4300002E-04   -2.4124449E-06
 -8.4250001E-04   -2.5220486E-06
 -8.4200001E-04   -2.5559575E-06
 -8.4150000E-04   -2.5184772E-06
 -8.4100000E-04   -2.4098854E-06
 -8.4050000E-04   -2.2286542E-06
 -8.3999999E-04   -1.9818674E-06
 -8.3949999E-04   -1.6832747E-06
 -8.3899999E-04   -1.3442655E-06
 -8.3849998E-04   -9.8108933E-07
 -8.3799998E-04   -6.1006631E-07
 -8.3749997E-04   -2.5321015E-07
 -8.3700003E-04    6.8229042E-08
 -8.3650002E-04    3.4772344E-07
 -8.3600002E-04    5.6832857E-07
 -8.3550002E-04    7.0969719E-07
 -8.3500001E-04    7.7398209E-07
 -8.3450001E-04    7.5535002E-07
 -8.3400001E-04    6.5060658E-07
 -8.3350000E-04    4.5100177E-07
 -8.3300000E-04    1.6570235E-07
 -8.3249999E-04   -1.7862490E-07
 -8.3199999E-04   -5.5829935E-07
 -8.3149999E-04   -9.4207081E-07
 -8.3099998E-04   -1.2969533E-06
 -8.3049998E-04   -1.5780854E-06
 -8.2999998E-04   -1.7511616E-06
 -8.2949997E-04   -1.7892371E-06
 -8.2900003E-04   -1.6672429E-06
 -8.2850002E-04   -1.3683036E-06
 -8.2800002E-04   -8.9839170E-07
 -8.2750001E-04   -2.7361833E-07
 -8.2700001E-04    4.7768310E-07
 -8.2650001E-04    1.3203736E-06
 -8.2600000E-04    2.2111196E-06
 -8.2550000E-04    3.0986714E-06
 -8.2500000E-04    3.9202505E-06
 -8.2449999E-04    4.6086343E-06
 -8.2399999E-04    5.1050738E-06
 -8.2349998E-04    5.3651229E-06
 -8.2299998E-04    5.3593385E-06
 -8.2249998E-04    5.0688309E-06
 -8.2199997E-04    4.4983226E-06
 -8.2150003E-04    3.6722577E-06
 -8.2100002E-04    2.6470259E-06
 -8.2050002E-04    1.4819324E-06
 -8.2000002E-04    2.4433868E-07
 -8.1950001E-04   -9.9450506E-07
 -8.1900001E-04   -2.1533485E-06
 -8.1850000E-04   -3.1788584E-06
 -8.1800000E-04   -4.0193677E-06
 -8.1750000E-04   -4.6365431E-06
 -8.1699999E-04   -4.9998284E-06
 -8.1649999E-04   -5.1153356E-06
 -8.1599999E-04   -4.9841751E-06
 -8.1549998E-04   -4.6296800E-06
 -8.1499998E-04   -4.0824070E-06
 -8.1449997E-04   -3.3822164E-06
 -8.1400003E-04   -2.5885531E-06
 -8.1350002E-04   -1.7582230E-06
 -8.1300002E-04   -9.5844848E-07
 -8.1250002E-04   -2.5284089E-07
 -8.1200001E-04    3.1443301E-07
 -8.1150001E-04    7.1337303E-07
 -8.1100001E-04    9.3620127E-07
 -8.1050000E-04    9.7513976E-07
 -8.1000000E-04    8.6018872E-07
 -8.0949999E-04    6.1940369E-07
 -8.0899999E-04    3.0139591E-07
 -8.0849999E-04   -5.5223325E-08
 -8.0799998E-04   -3.9989820E-07
 -8.0749998E-04   -6.8457297E-07
 -8.0699997E-04   -8.5869181E-07
 -8.0649997E-04   -8.8919904E-07
 -8.0600003E-04   -7.6720573E-07
 -8.0550002E-04   -4.8896175E-07
 -8.0500002E-04   -6.9189312E-08
 -8.0450001E-04    4.6023641E-07
 -8.0400001E-04    1.0534385E-06
 -8.0350001E-04    1.6694187E-06
 -8.0300000E-04    2.2597044E-06
 -8.0250000E-04    2.7774897E-06
 -8.0200000E-04    3.1902750E-06
 -8.0149999E-04    3.4700038E-06
 -8.0099999E-04    3.5827875E-06
 -8.0049998E-04    3.5157093E-06
 -7.9999998E-04    3.2701578E-06
 -7.9949998E-04    2.8735292E-06
 -7.9899997E-04    2.3573166E-06
 -7.9850003E-04    1.7777702E-06
 -7.9800002E-04    1.1726680E-06
 -7.9750002E-04    6.0034353E-07
 -7.9700002E-04    1.1913053E-07
 -7.9650001E-04   -2.3930426E-07
 -7.9600001E-04   -4.5496054E-07
 -7.9550000E-04   -5.3200495E-07
 -7.9500000E-04   -4.7182627E-07
 -7.9450000E-04   -3.0998018E-07
 -7.9399999E-04   -7.5911188E-08
 -7.9349999E-04    1.6926941E-07
 -7.9299998E-04    3.8445032E-07
 -7.9249998E-04    5.2296468E-07
 -7.9199998E-04    5.3425657E-07
 -7.9149997E-04    3.8610366E-07
 -7.9100003E-04    6.0727970E-08
 -7.9050002E-04   -4.2798172E-07
 -7.9000002E-04   -1.0789145E-06
 -7.8950002E-04   -1.8515145E-06
 -7.8900001E-04   -2.7168931E-06
 -7.8850001E-04   -3.5899805E-06
 -7.8800000E-04   -4.4144567E-06
 -7.8750000E-04   -5.1061552E-06
 -7.8700000E-04   -5.6222975E-06
 -7.8649999E-04   -5.9156619E-06
 -7.8599999E-04   -5.9640251E-06
 -7.8549999E-04   -5.7523880E-06
 -7.8499998E-04   -5.2990827E-06
 -7.8449998E-04   -4.6218884E-06
 -7.8399997E-04   -3.7617760E-06
 -7.8350003E-04   -2.7949966E-06
 -7.8300002E-04   -1.7715498E-06
 -7.8250002E-04   -7.3504719E-07
 -7.8200002E-04    2.6534443E-07
 -7.8150001E-04    1.1868470E-06
 -7.8100001E-04    1.9827937E-06
 -7.8050001E-04    2.6404066E-06
 -7.8000000E-04    3.1702414E-06
 -7.7950000E-04    3.6104921E-06
 -7.7899999E-04    3.9845613E-06
 -7.7849999E-04    4.3209916E-06
 -7.7799999E-04    4.6410323E-06
 -7.7749998E-04    4.9702398E-06
 -7.7699998E-04    5.2872242E-06
 -7.7649998E-04    5.6200415E-06
 -7.7599997E-04    5.9336921E-06
 -7.7550003E-04    6.1927594E-06
 -7.7500002E-04    6.3434923E-06
 -7.7450002E-04    6.3463085E-06
 -7.7400001E-04    6.1382907E-06
 -7.7350001E-04    5.7058282E-06
 -7.7300001E-04    5.0222543E-06
 -7.7250000E-04    4.0975688E-06
 -7.7200000E-04    2.9651053E-06
 -7.7150000E-04    1.6593082E-06
 -7.7099999E-04    2.4795551E-07
 -7.7049999E-04   -1.2211748E-06
 -7.6999998E-04   -2.6997493E-06
 -7.6949998E-04   -4.1149901E-06
 -7.6899998E-04   -5.4122447E-06
 -7.6849997E-04   -6.5139429E-06
 -7.6800003E-04   -7.3911956E-06
 -7.6750002E-04   -8.0006694E-06
 -7.6700002E-04   -8.3051427E-06
 -7.6650002E-04   -8.2807255E-06
 -7.6600001E-04   -7.9318634E-06
 -7.6550001E-04   -7.2718894E-06
 -7.6500000E-04   -6.3585821E-06
 -7.6450000E-04   -5.2752744E-06
 -7.6400000E-04   -4.0861332E-06
 -7.6349999E-04   -2.8547006E-06
 -7.6299999E-04   -1.6499351E-06
 -7.6249999E-04   -5.1572590E-07
 -7.6199998E-04    4.9403843E-07
 -7.6149998E-04    1.3421353E-06
 -7.6099997E-04    2.0202315E-06
 -7.6050003E-04    2.5594384E-06
 -7.6000002E-04    2.9508669E-06
 -7.5950002E-04    3.2406285E-06
 -7.5900002E-04    3.4162233E-06
 -7.5850001E-04    3.5057071E-06
 -7.5800001E-04    3.5169271E-06
 -7.5750001E-04    3.4859950E-06
 -7.5700000E-04    3.4114516E-06
 -7.5650000E-04    3.2958671E-06
 -7.5599999E-04    3.1358384E-06
 -7.5549999E-04    2.9052544E-06
 -7.5499999E-04    2.5935590E-06
 -7.5449998E-04    2.1940855E-06
 -7.5399998E-04    1.6818336E-06
 -7.5349997E-04    1.0645814E-06
 -7.5299997E-04    3.4566199E-07
 -7.5250003E-04   -4.5492490E-07
 -7.5200002E-04   -1.3005124E-06
 -7.5150002E-04   -2.1622118E-06
 -7.5100001E-04   -2.9905782E-06
 -7.5050001E-04   -3.7486673E-06
 -7.5000001E-04   -4.3957143E-06
 -7.4950000E-04   -4.8352608E-06
 -7.4900000E-04   -5.0192511E-06
 -7.4850000E-04   -4.9282403E-06
 -7.4799999E-04   -4.5566726E-06
 -7.4749999E-04   -3.9139923E-06
 -7.4699998E-04   -3.0468664E-06
 -7.4649998E-04   -1.9830723E-06
 -7.4599998E-04   -7.9511057E-07