 -1.2000001E-03    1.0000000E-24
 -1.1995001E-03    1.0000000E-24
 -1.1990000E-03    1.0000000E-24
 -1.1985000E-03    1.0000000E-24
 -1.1980000E-03    1.0000000E-24
 -1.1975000E-03    1.0000000E-24
 -1.1970000E-03   -3.4069488E-15
 -1.1965000E-03   -4.1034281E-14
 -1.1960000E-03   -2.6267446E-13
 -1.1955000E-03   -1.1842682E-12
 -1.1950000E-03   -4.2061112E-12
 -1.1945000E-03   -1.2481633E-11
 -1.1940000E-03   -3.2048555E-11
 -1.1935000E-03   -7.2768243E-11
 -1.1930000E-03   -1.4802493E-10
 -1.1925000E-03   -2.7136507E-10
 -1.1920000E-03   -4.4747805E-10
 -1.1915000E-03   -6.5444550E-10
 -1.1910000E-03   -8.1445245E-10
 -1.1905000E-03   -7.5165985E-10
 -1.1900000E-03   -1.3912471E-10
 -1.1895000E-03    1.5582526E-09
 -1.1890000E-03    5.1309708E-09
 -1.1885000E-03    1.1640787E-08
 -1.1880000E-03    2.2376337E-08
 -1.1875000E-03    3.8714902E-08
 -1.1870000E-03    6.1857165E-08
 -1.1865000E-03    9.2410048E-08
 -1.1860000E-03    1.2981131E-07
 -1.1854999E-03    1.7161932E-07
 -1.1849999E-03    2.1273229E-07
 -1.1845001E-03    2.4464961E-07
 -1.1840001E-03    2.5493853E-07
 -1.1835000E-03    2.2711318E-07
 -1.1830000E-03    1.4115886E-07
 -1.1825000E-03   -2.5068601E-08
 -1.1820000E-03   -2.9338446E-07
 -1.1815000E-03   -6.8166736E-07
 -1.1810000E-03   -1.1991617E-06
 -1.1805000E-03   -1.8409471E-06
 -1.1800000E-03   -2.5820641E-06
 -1.1795000E-03   -3.3720326E-06
 -1.1790000E-03   -4.1307221E-06
 -1.1785000E-03   -4.7466897E-06
 -1.1780000E-03   -5.0791555E-06
 -1.1775000E-03   -4.9646815E-06
 -1.1770000E-03   -4.2293318E-06
 -1.1765000E-03   -2.7066042E-06
 -1.1760000E-03   -2.6073189E-07
 -1.1755000E-03    3.1858810E-06
 -1.1750000E-03    7.6232718E-06
 -1.1745000E-03    1.2925671E-05
 -1.1740000E-03    1.8828279E-05
 -1.1735000E-03    2.4913435E-05
 -1.1730000E-03    3.0610645E-05
 -1.1725000E-03    3.5214442E-05
 -1.1720000E-03    3.7922964E-05
 -1.1715000E-03    3.7898397E-05
 -1.1710000E-03    3.4348046E-05
 -1.1704999E-03    2.6622103E-05
 -1.1699999E-03    1.4321081E-05
 -1.1695001E-03   -2.5968793E-06
 -1.1690001E-03   -2.3721081E-05
 -1.1685000E-03   -4.8119397E-05
 -1.1680000E-03   -7.4309362E-05
 -1.1675000E-03   -1.0028174E-04
 -1.1670000E-03   -1.2358589E-04
 -1.1665000E-03   -1.4148143E-04
 -1.1660000E-03   -1.5115397E-04
 -1.1655000E-03   -1.4998538E-04
 -1.1650000E-03   -1.3586052E-04
 -1.1645000E-03   -1.0748491E-04
 -1.1640000E-03   -6.4681328E-05
 -1.1635000E-03   -8.6290165E-06
 -1.1630000E-03    5.7991376E-05
 -1.1625000E-03    1.3098109E-04
 -1.1620000E-03    2.0476125E-04
 -1.1615000E-03    2.7267993E-04
 -1.1610000E-03    3.2748748E-04
 -1.1605000E-03    3.6196056E-04
 -1.1600000E-03    3.6963570E-04
 -1.1595000E-03    3.4559492E-04
 -1.1590000E-03    2.8722943E-04
 -1.1585000E-03    1.9489753E-04
 -1.1580000E-03    7.2388939E-05
 -1.1575000E-03   -7.2885799E-05
 -1.1570000E-03   -2.3004775E-04
 -1.1565000E-03   -3.8528466E-04
 -1.1560000E-03   -5.2277680E-04
 -1.1555000E-03   -6.2598125E-04
 -1.1549999E-03   -6.7919929E-04
 -1.1544999E-03   -6.6931080E-04
 -1.1540001E-03   -5.8752234E-04
 -1.1535001E-03   -4.3095136E-04
 -1.1530000E-03   -2.0385793E-04
 -1.1525000E-03    8.1657199E-05
 -1.1520000E-03    4.0564072E-04
 -1.1515000E-03    7.4106734E-04
 -1.1510000E-03    1.0554520E-03
 -1.1505000E-03    1.3132545E-03
 -1.1500000E-03    1.4789494E-03
 -1.1495000E-03    1.5205510E-03
 -1.1490000E-03    1.4133023E-03
 -1.1485000E-03    1.1431851E-03
 -1.1480000E-03    7.0987502E-04
 -1.1475000E-03    1.2877031E-04
 -1.1470000E-03   -5.6823273E-04
 -1.1465000E-03   -1.3334646E-03
 -1.1460000E-03   -2.1058372E-03
 -1.1455000E-03   -2.8148117E-03
 -1.1450000E-03   -3.3858039E-03
 -1.1445000E-03   -3.7466821E-03
 -1.1440000E-03   -3.8348676E-03
 -1.1435000E-03   -3.6044237E-03
 -1.1430000E-03   -3.0324464E-03
 -1.1425000E-03   -2.1240576E-03
 -1.1420000E-03   -9.1535447E-04
 -1.1415000E-03    5.2620901E-04
 -1.1410000E-03    2.1043420E-03
 -1.1405000E-03    3.6994270E-03
 -1.1399999E-03    5.1768310E-03
 -1.1394999E-03    6.3975379E-03
 -1.1390001E-03    7.2303405E-03
 -1.1385001E-03    7.5646061E-03
 -1.1380001E-03    7.3224655E-03
 -1.1375000E-03    6.4692134E-03
 -1.1370000E-03    5.0207516E-03
 -1.1365000E-03    3.0470770E-03
 -1.1360000E-03    6.7109405E-04
 -1.1355000E-03   -1.9375929E-03
 -1.1350000E-03   -4.5738067E-03
 -1.1345000E-03   -7.0122574E-03
 -1.1340000E-03   -9.0262853E-03
 -1.1335000E-03   -1.0408422E-02
 -1.1330000E-03   -1.0990995E-02
 -1.1325000E-03   -1.0664847E-02
 -1.1320000E-03   -9.3942257E-03
 -1.1315000E-03   -7.2261188E-03
 -1.1310000E-03   -4.2926669E-03
 -1.1305000E-03   -8.0584013E-04
 -1.1300000E-03    2.9557736E-03
 -1.1295000E-03    6.6674780E-03
 -1.1290000E-03    9.9849422E-03
 -1.1285000E-03    1.2574631E-02
 -1.1280000E-03    1.4145629E-02
 -1.1275000E-03    1.4479978E-02
 -1.1270000E-03    1.3458532E-02
 -1.1265000E-03    1.1079545E-02
 -1.1260000E-03    7.4676634E-03
 -1.1255000E-03    2.8717350E-03
 -1.1250000E-03   -2.3492109E-03
 -1.1244999E-03   -7.7513908E-03
 -1.1239999E-03   -1.2841552E-02
 -1.1235001E-03   -1.7119527E-02
 -1.1230001E-03   -2.0124560E-02
 -1.1225000E-03   -2.1481335E-02
 -1.1220000E-03   -2.0941311E-02
 -1.1215000E-03   -1.8415142E-02
 -1.1210000E-03   -1.3992473E-02
 -1.1205000E-03   -7.9463515E-03
 -1.1200000E-03   -7.2073936E-04
 -1.1195000E-03    7.0988750E-03
 -1.1190000E-03    1.4830198E-02
 -1.1185000E-03    2.1751033E-02
 -1.1180000E-03    2.7163859E-02
 -1.1175000E-03    3.0462561E-02
 -1.1170000E-03    3.1195182E-02
 -1.1165000E-03    2.9116582E-02
 -1.1160000E-03    2.4225373E-02
 -1.1155000E-03    1.6780661E-02
 -1.1150000E-03    7.2957035E-03
 -1.1145000E-03   -3.4924503E-03
 -1.1140000E-03   -1.4676040E-02
 -1.1135000E-03   -2.5248947E-02
 -1.1130000E-03   -3.4192804E-02
 -1.1125000E-03   -4.0569793E-02
 -1.1120000E-03   -4.3613933E-02
 -1.1115000E-03   -4.2812370E-02
 -1.1110000E-03   -3.7968569E-02
 -1.1105000E-03   -2.9240509E-02
 -1.1100000E-03   -1.7148871E-02
 -1.1094999E-03   -2.5527254E-03
 -1.1089999E-03    1.3406975E-02
 -1.1084999E-03    2.9392783E-02
 -1.1080001E-03    4.3978911E-02
 -1.1075001E-03    5.5773601E-02
 -1.1070000E-03    6.3545413E-02
 -1.1065000E-03    6.6342250E-02
 -1.1060000E-03    6.3592009E-02
 -1.1055000E-03    5.5174779E-02
 -1.1050000E-03    4.1458748E-02
 -1.1045000E-03    2.3294648E-02
 -1.1040000E-03    1.9672476E-03
 -1.1035000E-03   -2.0893926E-02
 -1.1030000E-03   -4.3438654E-02
 -1.1025000E-03   -6.3745506E-02
 -1.1020000E-03   -7.9984695E-02
 -1.1015000E-03   -9.0580538E-02
 -1.1010000E-03   -9.4359182E-02
 -1.1005000E-03   -9.0668067E-02
 -1.1000000E-03   -7.9455405E-02
 -1.0995000E-03   -6.1301142E-02
 -1.0990000E-03   -3.7394784E-02
 -1.0985000E-03   -9.4599910E-03
 -1.0980000E-03    2.0369545E-02
 -1.0975000E-03    4.9713947E-02
 -1.0970000E-03    7.6137982E-02
 -1.0965000E-03    9.7353354E-02
 -1.0960000E-03    0.1114155    
 -1.0955000E-03    0.1168979    
 -1.0950000E-03    0.1130282    
 -1.0945000E-03    9.9773616E-02
 -1.0939999E-03    7.7867225E-02
 -1.0934999E-03    4.8770547E-02
 -1.0930001E-03    1.4575005E-02
 -1.0925001E-03   -2.2151500E-02
 -1.0920000E-03   -5.8561023E-02
 -1.0915000E-03   -9.1749460E-02
 -1.0910000E-03   -0.1189898    
 -1.0905000E-03   -0.1379552    
 -1.0900000E-03   -0.1469141    
 -1.0895000E-03   -0.1448790    
 -1.0890000E-03   -0.1316989    
 -1.0885000E-03   -0.1080838    
 -1.0880000E-03   -7.5561836E-02
 -1.0875000E-03   -3.6369678E-02
 -1.0870000E-03    6.7140348E-03
 -1.0865000E-03    5.0579268E-02
 -1.0860000E-03    9.2022240E-02
 -1.0855000E-03    0.1279910    
 -1.0850000E-03    0.1558189    
 -1.0845000E-03    0.1734283    
 -1.0840000E-03    0.1794864    
 -1.0835000E-03    0.1735040    
 -1.0830000E-03    0.1558671    
 -1.0825000E-03    0.1278019    
 -1.0820000E-03    9.1275647E-02
 -1.0815000E-03    4.8842411E-02
 -1.0810000E-03    3.4473017E-03
 -1.0805000E-03   -4.1795198E-02
 -1.0800000E-03   -8.3830841E-02
 -1.0795000E-03   -0.1198853    
 -1.0790000E-03   -0.1476572    
 -1.0784999E-03   -0.1654710    
 -1.0779999E-03   -0.1723790    
 -1.0775001E-03   -0.1682064    
 -1.0770001E-03   -0.1535398    
 -1.0765000E-03   -0.1296598    
 -1.0760000E-03   -9.8427385E-02
 -1.0755000E-03   -6.2133539E-02
 -1.0750000E-03   -2.3325097E-02
 -1.0745000E-03    1.5379421E-02
 -1.0740000E-03    5.1470231E-02
 -1.0735000E-03    8.2710408E-02
 -1.0730000E-03    0.1072733    
 -1.0725000E-03    0.1238457    
 -1.0720000E-03    0.1316911    
 -1.0715000E-03    0.1306733    
 -1.0710000E-03    0.1212397    
 -1.0705000E-03    0.1043687    
 -1.0700000E-03    8.1488445E-02
 -1.0695000E-03    5.4371811E-02
 -1.0690000E-03    2.5016498E-02
 -1.0685000E-03   -4.4818148E-03
 -1.0680000E-03   -3.2056384E-02
 -1.0675000E-03   -5.5789609E-02
 -1.0670000E-03   -7.4020937E-02
 -1.0665000E-03   -8.5437991E-02
 -1.0660000E-03   -8.9147411E-02
 -1.0655000E-03   -8.4722891E-02
 -1.0650000E-03   -7.2228737E-02
 -1.0645000E-03   -5.2217975E-02
 -1.0640000E-03   -2.5704863E-02
 -1.0634999E-03    5.8876816E-03
 -1.0629999E-03    4.0804319E-02
 -1.0625001E-03    7.7054724E-02
 -1.0620001E-03    0.1125286    
 -1.0615001E-03    0.1451235    
 -1.0610000E-03    0.1728788    
 -1.0605000E-03    0.1941091    
 -1.0600000E-03    0.2075275    
 -1.0595000E-03    0.2123510    
 -1.0590000E-03    0.2083781    
 -1.0585000E-03    0.1960312    
 -1.0580000E-03    0.1763570    
 -1.0575000E-03    0.1509812    
 -1.0570000E-03    0.1220167    
 -1.0565000E-03    9.1928393E-02
 -1.0560000E-03    6.3361131E-02
 -1.0555000E-03    3.8941681E-02
 -1.0550000E-03    2.1068821E-02
 -1.0545000E-03    1.1707591E-02
 -1.0540000E-03    1.2205362E-02
 -1.0535000E-03    2.3146838E-02
 -1.0530000E-03    4.4263247E-02
 -1.0525000E-03    7.4407496E-02
 -1.0520000E-03    0.1116021    
 -1.0515000E-03    0.1531610    
 -1.0510000E-03    0.1958791    
 -1.0505000E-03    0.2362788    
 -1.0500000E-03    0.2708938    
 -1.0495000E-03    0.2965689    
 -1.0490000E-03    0.3107497    
 -1.0485000E-03    0.3117366    
 -1.0479999E-03    0.2988771    
 -1.0474999E-03    0.2726779    
 -1.0470001E-03    0.2348201    
 -1.0465001E-03    0.1880733    
 -1.0460000E-03    0.1361087    
 -1.0455000E-03    8.3224609E-02
 -1.0450000E-03    3.4003418E-02
 -1.0445000E-03   -7.0723929E-03
 -1.0440000E-03   -3.6012508E-02
 -1.0435000E-03   -4.9685046E-02
 -1.0430000E-03   -4.6122845E-02
 -1.0425000E-03   -2.4740010E-02
 -1.0420000E-03    1.3564296E-02
 -1.0415000E-03    6.6428408E-02
 -1.0410000E-03    0.1301798    
 -1.0405000E-03    0.2001069    
 -1.0400000E-03    0.2708313    
 -1.0395000E-03    0.3367498    
 -1.0390000E-03    0.3925097    
 -1.0385000E-03    0.4334762    
 -1.0380000E-03    0.4561493    
 -1.0375000E-03    0.4584919    
 -1.0370000E-03    0.4401377    
 -1.0365000E-03    0.4024578    
 -1.0360000E-03    0.3484756    
 -1.0355000E-03    0.2826351    
 -1.0350000E-03    0.2104401    
 -1.0345000E-03    0.1379935    
 -1.0340000E-03    7.1476489E-02
 -1.0335000E-03    1.6612913E-02
 -1.0329999E-03   -2.1834258E-02
 -1.0324999E-03   -4.0487796E-02
 -1.0319999E-03   -3.7664250E-02
 -1.0315001E-03   -1.3535801E-02
 -1.0310001E-03    2.9870160E-02
 -1.0305000E-03    8.8835418E-02
 -1.0300000E-03    0.1582662    
 -1.0295000E-03    0.2321325    
 -1.0290000E-03    0.3039927    
 -1.0285000E-03    0.3675581    
 -1.0280000E-03    0.4172463    
 -1.0275000E-03    0.4486743    
 -1.0270000E-03    0.4590470    
 -1.0265000E-03    0.4474071    
 -1.0260000E-03    0.4147220    
 -1.0255000E-03    0.3638020    
 -1.0250000E-03    0.2990564    
 -1.0245000E-03    0.2261086    
 -1.0240000E-03    0.1513068    
 -1.0235000E-03    8.1171714E-02
 -1.0230000E-03    2.1832921E-02
 -1.0225000E-03   -2.1498285E-02
 -1.0220000E-03   -4.4971973E-02
 -1.0215000E-03   -4.6420999E-02
 -1.0210000E-03   -2.5533620E-02
 -1.0205000E-03    1.6135938E-02
 -1.0200000E-03    7.5317711E-02
 -1.0195000E-03    0.1473214    
 -1.0190000E-03    0.2264489    
 -1.0185000E-03    0.3064856    
 -1.0180000E-03    0.3812265    
 -1.0174999E-03    0.4449914    
 -1.0169999E-03    0.4930839    
 -1.0165001E-03    0.5221573    
 -1.0160001E-03    0.5304592    
 -1.0155000E-03    0.5179357    
 -1.0150000E-03    0.4861937    
 -1.0145000E-03    0.4383273    
 -1.0140000E-03    0.3786300    
 -1.0135000E-03    0.3122194    
 -1.0130000E-03    0.2446117    
 -1.0125000E-03    0.1812818    
 -1.0120000E-03    0.1272462    
 -1.0115000E-03    8.6701810E-02
 -1.0110000E-03    6.2746085E-02
 -1.0105000E-03    5.7195473E-02
 -1.0100000E-03    7.0510112E-02
 -1.0095000E-03    0.1018227    
 -1.0090000E-03    0.1490612    
 -1.0085000E-03    0.2091475    
 -1.0080000E-03    0.2782516    
 -1.0075000E-03    0.3520753    
 -1.0070000E-03    0.4261438    
 -1.0065000E-03    0.4960828    
 -1.0060000E-03    0.5578653    
 -1.0055000E-03    0.6080156    
 -1.0050000E-03    0.6437646    
 -1.0045000E-03    0.6631557    
 -1.0040000E-03    0.6651033    
 -1.0035000E-03    0.6494104    
 -1.0030000E-03    0.6167518    
 -1.0025000E-03    0.5686299    
 -1.0019999E-03    0.5073077    
 -1.0014999E-03    0.4357232    
 -1.0010001E-03    0.3573853    
 -1.0005001E-03    0.2762497    
 -1.0000000E-03    0.1965743    
 -9.9950004E-04    0.1227498    
 -9.9900004E-04    5.9106044E-02
 -9.9850004E-04    9.6969306E-03
 -9.9800003E-04   -2.1931492E-02
 -9.9750003E-04   -3.2977931E-02
 -9.9700002E-04   -2.1613408E-02
 -9.9650002E-04    1.2819063E-02
 -9.9600002E-04    6.9653153E-02
 -9.9550001E-04    0.1468168    
 -9.9500001E-04    0.2408365    
 -9.9450001E-04    0.3469419    
 -9.9400000E-04    0.4592764    
 -9.9350000E-04    0.5712101    
 -9.9299999E-04    0.6757429    
 -9.9249999E-04    0.7659745    
 -9.9199999E-04    0.8356084    
 -9.9149998E-04    0.8794517    
 -9.9099998E-04    0.8938688    
 -9.9049998E-04    0.8771449    
 -9.8999997E-04    0.8297229    
 -9.8949997E-04    0.7542830    
 -9.8899996E-04    0.6556465    
 -9.8849996E-04    0.5405017    
 -9.8799996E-04    0.4169627    
 -9.8749995E-04    0.2939900    
 -9.8699995E-04    0.1807155    
 -9.8649994E-04    8.5724518E-02
 -9.8600006E-04    1.6355291E-02
 -9.8550005E-04   -2.1922313E-02
 -9.8500005E-04   -2.5992395E-02
 -9.8450005E-04    4.6050418E-03
 -9.8400004E-04    6.7588210E-02
 -9.8350004E-04    0.1580782    
 -9.8300003E-04    0.2689683    
 -9.8250003E-04    0.3914908    
 -9.8200003E-04    0.5159371    
 -9.8150002E-04    0.6324697    
 -9.8100002E-04    0.7319554    
 -9.8050002E-04    0.8067479    
 -9.8000001E-04    0.8513454    
 -9.7950001E-04    0.8628664    
 -9.7900000E-04    0.8412952    
 -9.7850000E-04    0.7894746    
 -9.7800000E-04    0.7128438    
 -9.7749999E-04    0.6189432    
 -9.7699999E-04    0.5167295    
 -9.7649998E-04    0.4157656    
 -9.7599998E-04    0.3253557    
 -9.7549998E-04    0.2537090    
 -9.7499997E-04    0.2072077    
 -9.7450003E-04    0.1898482    
 -9.7400002E-04    0.2029078    
 -9.7350002E-04    0.2448673    
 -9.7300002E-04    0.3115965    
 -9.7250001E-04    0.3967846    
 -9.7200001E-04    0.4925729    
 -9.7150001E-04    0.5903292    
 -9.7100000E-04    0.6814891    
 -9.7050000E-04    0.7583822    
 -9.6999999E-04    0.8149652    
 -9.6949999E-04    0.8473896    
 -9.6899999E-04    0.8543508    
 -9.6849998E-04    0.8371862    
 -9.6799998E-04    0.7997127    
 -9.6749997E-04    0.7478217    
 -9.6700003E-04    0.6888724    
 -9.6650003E-04    0.6309430    
 -9.6600002E-04    0.5820156    
 -9.6550002E-04    0.5491731    
 -9.6500001E-04    0.5378884    
 -9.6450001E-04    0.5514750    
 -9.6400001E-04    0.5907514    
 -9.6350000E-04    0.6539522    
 -9.6300000E-04    0.7368926    
 -9.6249999E-04    0.8333696    
 -9.6199999E-04    0.9357576    
 -9.6149999E-04     1.035741    
 -9.6099998E-04     1.125111    
 -9.6049998E-04     1.196542    
 -9.5999998E-04     1.244291    
 -9.5949997E-04     1.264722    
 -9.5900003E-04     1.256640    
 -9.5850002E-04     1.221383    
 -9.5800002E-04     1.162668    
 -9.5750001E-04     1.086222    
 -9.5700001E-04    0.9992290    
 -9.5650001E-04    0.9096415    
 -9.5600000E-04    0.8254471    
 -9.5550000E-04    0.7539417    
 -9.5500000E-04    0.7010910    
 -9.5449999E-04    0.6710349    
 -9.5399999E-04    0.6657812    
 -9.5349998E-04    0.6851102    
 -9.5299998E-04    0.7266943    
 -9.5249998E-04    0.7864122    
 -9.5199997E-04    0.8588188    
 -9.5150003E-04    0.9377187    
 -9.5100002E-04     1.016781    
 -9.5050002E-04     1.090134    
 -9.5000002E-04     1.152873    
 -9.4950001E-04     1.201448    
 -9.4900001E-04     1.233878    
 -9.4850000E-04     1.249800    
 -9.4800000E-04     1.250336    
 -9.4750000E-04     1.237820    
 -9.4699999E-04     1.215413    
 -9.4649999E-04     1.186653    
 -9.4599999E-04     1.155008    
 -9.4549998E-04     1.123466    
 -9.4499998E-04     1.094222    
 -9.4449997E-04     1.068488    
 -9.4400003E-04     1.046444    
 -9.4350002E-04     1.027330    
 -9.4300002E-04     1.009668    
 -9.4250002E-04    0.9915689    
 -9.4200001E-04    0.9711002    
 -9.4150001E-04    0.9466473    
 -9.4100001E-04    0.9172366    
 -9.4050000E-04    0.8827677    
 -9.4000000E-04    0.8441287    
 -9.3949999E-04    0.8031748    
 -9.3899999E-04    0.7625726    
 -9.3849999E-04    0.7255235    
 -9.3799998E-04    0.6954001    
 -9.3749998E-04    0.6753368    
 -9.3699998E-04    0.6678242    
 -9.3649997E-04    0.6743563    
 -9.3600003E-04    0.6951764    
 -9.3550002E-04    0.7291548    
 -9.3500002E-04    0.7738184    
 -9.3450001E-04    0.8255341    
 -9.3400001E-04    0.8798313    
 -9.3350001E-04    0.9318303    
 -9.3300000E-04    0.9767330    
 -9.3250000E-04     1.010321    
 -9.3200000E-04     1.029408    
 -9.3149999E-04     1.032188    
 -9.3099999E-04     1.018450    
 -9.3049998E-04    0.9896193    
 -9.2999998E-04    0.9486181    
 -9.2949998E-04    0.8995687    
 -9.2899997E-04    0.8473526    
 -9.2850003E-04    0.7970808    
 -9.2800002E-04    0.7535307    
 -9.2750002E-04    0.7206100    
 -9.2700002E-04    0.7009093    
 -9.2650001E-04    0.6953966    
 -9.2600001E-04    0.7032897    
 -9.2550000E-04    0.7221261    
 -9.2500000E-04    0.7480290    
 -9.2450000E-04    0.7761430    
 -9.2399999E-04    0.8011972    
 -9.2349999E-04    0.8181362    
 -9.2299999E-04    0.8227493    
 -9.2249998E-04    0.8122293    
 -9.2199998E-04    0.7855949    
 -9.2149997E-04    0.7439249    
 -9.2100003E-04    0.6903721    
 -9.2050002E-04    0.6299458    
 -9.2000002E-04    0.5690770    
 -9.1950002E-04    0.5150070    
 -9.1900001E-04    0.4750543    
 -9.1850001E-04    0.4558367    
 -9.1800001E-04    0.4625270    
 -9.1750000E-04    0.4982211    
 -9.1700000E-04    0.5634915    
 -9.1649999E-04    0.6561753    
 -9.1599999E-04    0.7714304    
 -9.1549999E-04    0.9020603    
 -9.1499998E-04     1.039086    
 -9.1449998E-04     1.172512    
 -9.1399997E-04     1.292221    
 -9.1349997E-04     1.388905    
 -9.1300003E-04     1.454948    
 -9.1250002E-04     1.485168    
 -9.1200002E-04     1.477348    
 -9.1150001E-04     1.432494    
 -9.1100001E-04     1.354797    
 -9.1050001E-04     1.251295    
 -9.1000000E-04     1.131265    
 -9.0950000E-04     1.005399    
 -9.0899999E-04    0.8848510    
 -9.0849999E-04    0.7802270    
 -9.0799999E-04    0.7006387    
 -9.0749998E-04    0.6528922    
 -9.0699998E-04    0.6408991    
 -9.0649998E-04    0.6653638    
 -9.0599997E-04    0.7237743    
 -9.0550003E-04    0.8106971    
 -9.0500002E-04    0.9183431    
 -9.0450002E-04     1.037348    
 -9.0400001E-04     1.157687    
 -9.0350001E-04     1.269637    
 -9.0300001E-04     1.364687    
 -9.0250000E-04     1.436309    
 -9.0200000E-04     1.480520    
 -9.0150000E-04     1.496182    
 -9.0099999E-04     1.485011    
 -9.0049999E-04     1.451308    
 -8.9999998E-04     1.401437    
 -8.9949998E-04     1.343120    
 -8.9899998E-04     1.284605    
 -8.9849997E-04     1.233812    
 -8.9800003E-04     1.197537    
 -8.9750002E-04     1.180787    
 -8.9700002E-04     1.186323    
 -8.9650002E-04     1.214440    
 -8.9600001E-04     1.263005    
 -8.9550001E-04     1.327748    
 -8.9500000E-04     1.402756    
 -8.9450000E-04     1.481124    
 -8.9400000E-04     1.555690    
 -8.9349999E-04     1.619773    
 -8.9299999E-04     1.667836    
 -8.9249999E-04     1.696017    
 -8.9199998E-04     1.702466    
 -8.9149998E-04     1.687468    
 -8.9099997E-04     1.653349    
 -8.9050003E-04     1.604167    
 -8.9000002E-04     1.545258    
 -8.8950002E-04     1.482658    
 -8.8900002E-04     1.422496    
 -8.8850001E-04     1.370399    
 -8.8800001E-04     1.330994    
 -8.8750001E-04     1.307536    
 -8.8700000E-04     1.301706    
 -8.8650000E-04     1.313590    
 -8.8599999E-04     1.341819    
 -8.8549999E-04     1.383858    
 -8.8499999E-04     1.436393    
 -8.8449998E-04     1.495759    
 -8.8399998E-04     1.558363    
 -8.8349998E-04     1.621046    
 -8.8299997E-04     1.681344    
 -8.8250003E-04     1.737617    
 -8.8200002E-04     1.789050    
 -8.8150002E-04     1.835518    
 -8.8100001E-04     1.877362    
 -8.8050001E-04     1.915098    
 -8.8000001E-04     1.949122    
 -8.7950000E-04     1.979452    
 -8.7900000E-04     2.005550    
 -8.7850000E-04     2.026270    
 -8.7799999E-04     2.039928    
 -8.7749999E-04     2.044515    
 -8.7699998E-04     2.038014    
 -8.7649998E-04     2.018793    
 -8.7599998E-04     1.986017    
 -8.7549997E-04     1.940025    
 -8.7500003E-04     1.882607    
 -8.7450002E-04     1.817135    
 -8.7400002E-04     1.748516    
 -8.7350002E-04     1.682935    
 -8.7300001E-04     1.627413    
 -8.7250001E-04     1.589198    
 -8.7200000E-04     1.575055    
 -8.7150000E-04     1.590506    
 -8.7100000E-04     1.639128    
 -8.7049999E-04     1.721966    
 -8.6999999E-04     1.837155    
 -8.6949999E-04     1.979793    
 -8.6899998E-04     2.142121    
 -8.6849998E-04     2.313993    
 -8.6799997E-04     2.483627    
 -8.6750003E-04     2.638568    
 -8.6700002E-04     2.766789    
 -8.6650002E-04     2.857827    
 -8.6600002E-04     2.903833    
 -8.6550001E-04     2.900442    
 -8.6500001E-04     2.847360    
 -8.6450001E-04     2.748592    
 -8.6400000E-04     2.612283    
 -8.6350000E-04     2.450155    
 -8.6299999E-04     2.276599    
 -8.6249999E-04     2.107465    
 -8.6199999E-04     1.958690    
 -8.6149998E-04     1.844860    
 -8.6099998E-04     1.777863    
 -8.6049997E-04     1.765746    
 -8.5999997E-04     1.811908    
 -8.5950003E-04     1.914697    
 -8.5900002E-04     2.067473    
 -8.5850002E-04     2.259131    
 -8.5800001E-04     2.475044    
 -8.5750001E-04     2.698352    
 -8.5700001E-04     2.911463    
 -8.5650000E-04     3.097650    
 -8.5600000E-04     3.242568    
 -8.5549999E-04     3.335565    
 -8.5499999E-04     3.370656    
 -8.5449999E-04     3.347063    
 -8.5399998E-04     3.269266    
 -8.5349998E-04     3.146569    
 -8.5299998E-04     2.992212    
 -8.5249997E-04     2.822117    
 -8.5200003E-04     2.653389    
 -8.5150002E-04     2.502716    
 -8.5100002E-04     2.384825    
 -8.5050002E-04     2.311131    
 -8.5000001E-04     2.288723    
 -8.4950001E-04     2.319773    
 -8.4900000E-04     2.401415    
 -8.4850000E-04     2.526114    
 -8.4800000E-04     2.682476    
 -8.4749999E-04     2.856418    
 -8.4699999E-04     3.032568    
 -8.4649998E-04     3.195770    
 -8.4599998E-04     3.332542    
 -8.4549998E-04     3.432330    
 -8.4499997E-04     3.488459    
 -8.4450003E-04     3.498680    
 -8.4400002E-04     3.465273    
 -8.4350002E-04     3.394696    
 -8.4300002E-04     3.296839    
 -8.4250001E-04     3.183959    
 -8.4200001E-04     3.069403    
 -8.4150000E-04     2.966265    
 -8.4100000E-04     2.886108    
 -8.4050000E-04     2.837877    
 -8.3999999E-04     2.827108    
 -8.3949999E-04     2.855510    
 -8.3899999E-04     2.920944    
 -8.3849998E-04     3.017794    
 -8.3799998E-04     3.137681    
 -8.3749997E-04     3.270430    
 -8.3700003E-04     3.405180    
 -8.3650002E-04     3.531529    
 -8.3600002E-04     3.640576    
 -8.3550002E-04     3.725760    
 -8.3500001E-04     3.783418    
 -8.3450001E-04     3.813008    
 -8.3400001E-04     3.816981    
 -8.3350000E-04     3.800341    
 -8.3300000E-04     3.769938    
 -8.3249999E-04     3.733594    
 -8.3199999E-04     3.699156    
 -8.3149999E-04     3.673594    
 -8.3099998E-04     3.662240    
 -8.3049998E-04     3.668246    
 -8.2999998E-04     3.692328    
 -8.2949997E-04     3.732808    
 -8.2900003E-04     3.785947    
 -8.2850002E-04     3.846513    
 -8.2800002E-04     3.908525    
 -8.2750001E-04     3.966066    
 -8.2700001E-04     4.014072    
 -8.2650001E-04     4.049006    
 -8.2600000E-04     4.069321    
 -8.2550000E-04     4.075675    
 -8.2500000E-04     4.070856    
 -8.2449999E-04     4.059437    
 -8.2399999E-04     4.047195    
 -8.2349998E-04     4.040371    
 -8.2299998E-04     4.044849    
 -8.2249998E-04     4.065366    
 -8.2199997E-04     4.104845    
 -8.2150003E-04     4.163930    
 -8.2100002E-04     4.240796    
 -8.2050002E-04     4.331241    
 -8.2000002E-04     4.429092    
 -8.1950001E-04     4.526845    
 -8.1900001E-04     4.616495    
 -8.1850000E-04     4.690464    
 -8.1800000E-04     4.742500    
 -8.1750000E-04     4.768469    
 -8.1699999E-04     4.766921    
 -8.1649999E-04     4.739377    
 -8.1599999E-04     4.690278    
 -8.1549998E-04     4.626610    
 -8.1499998E-04     4.557226    
 -8.1449997E-04     4.491933    
 -8.1400003E-04     4.440447    
 -8.1350002E-04     4.411330    
 -8.1300002E-04     4.411012    
 -8.1250002E-04     4.443035    
 -8.1200001E-04     4.507586    
 -8.1150001E-04     4.601388    
 -8.1100001E-04     4.717970    
 -8.1050000E-04     4.848298    
 -8.1000000E-04     4.981695    
 -8.0949999E-04     5.106968    
 -8.0899999E-04     5.213614    
 -8.0849999E-04     5.292982    
 -8.0799998E-04     5.339251    
 -8.0749998E-04     5.350127    
 -8.0699997E-04     5.327161    
 -8.0649997E-04     5.275660    
 -8.0600003E-04     5.204175    
 -8.0550002E-04     5.123637    
 -8.0500002E-04     5.046198    
 -8.0450001E-04     4.983922    
 -8.0400001E-04     4.947458    
 -8.0350001E-04     4.944830    
 -8.0300000E-04     4.980500    
 -8.0250000E-04     5.054787    
 -8.0200000E-04     5.163734    
 -8.0149999E-04     5.299438    
 -8.0099999E-04     5.450809    
 -8.0049998E-04     5.604714    
 -7.9999998E-04     5.747347    
 -7.9949998E-04     5.865726    
 -7.9899997E-04     5.949122    
 -7.9850003E-04     5.990289    
 -7.9800002E-04     5.986343    
 -7.9750002E-04     5.939196    
 -7.9700002E-04     5.855479    
 -7.9650001E-04     5.745967    
 -7.9600001E-04     5.624537    
 -7.9550000E-04     5.506778    
 -7.9500000E-04     5.408377    
 -7.9450000E-04     5.343471    
 -7.9399999E-04     5.323110    
 -7.9349999E-04     5.354029    
 -7.9299998E-04     5.437837    
 -7.9249998E-04     5.570737    
 -7.9199998E-04     5.743806    
 -7.9149997E-04     5.943822    
 -7.9100003E-04     6.154557    
 -7.9050002E-04     6.358409    
 -7.9000002E-04     6.538214    
 -7.8950002E-04     6.679034    
 -7.8900001E-04     6.769753    
 -7.8850001E-04     6.804295    
 -7.8800000E-04     6.782331    
 -7.8750000E-04     6.709407    
 -7.8700000E-04     6.596453    
 -7.8649999E-04     6.458717    
 -7.8599999E-04     6.314246    
 -7.8549999E-04     6.182034    
 -7.8499998E-04     6.080065    
 -7.8449998E-04     6.023411    
 -7.8399997E-04     6.022629    
 -7.8350003E-04     6.082586    
 -7.8300002E-04     6.201880    
 -7.8250002E-04     6.372893    
 -7.8200002E-04     6.582499    
 -7.8150001E-04     6.813351    
 -7.8100001E-04     7.045630    
 -7.8050001E-04     7.259067    
 -7.8000000E-04     7.435035    
 -7.7950000E-04     7.558507    
 -7.7899999E-04     7.619653    
 -7.7849999E-04     7.614919    
 -7.7799999E-04     7.547469    
 -7.7749998E-04     7.426937    
 -7.7699998E-04     7.268505    
 -7.7649998E-04     7.091393    
 -7.7599997E-04     6.916924    
 -7.7550003E-04     6.766351    
 -7.7500002E-04     6.658661    
 -7.7450002E-04     6.608609    
 -7.7400001E-04     6.625163    
 -7.7350001E-04     6.710530    
 -7.7300001E-04     6.859885    
 -7.7250000E-04     7.061808    
 -7.7200000E-04     7.299417    
 -7.7150000E-04     7.552071    
 -7.7099999E-04     7.797463    
 -7.7049999E-04     8.013912    
 -7.6999998E-04     8.182595    
 -7.6949998E-04     8.289503    
 -7.6899998E-04     8.326910    
 -7.6849997E-04     8.294203    
 -7.6800003E-04     8.197983    
 -7.6750002E-04     8.051425    
 -7.6700002E-04     7.872956    
 -7.6650002E-04     7.684388    
 -7.6600001E-04     7.508694    
 -7.6550001E-04     7.367657    
 -7.6500000E-04     7.279636    
 -7.6450000E-04     7.257677    
 -7.6400000E-04     7.308159    
 -7.6349999E-04     7.430140    
 -7.6299999E-04     7.615433    
 -7.6249999E-04     7.849448    
 -7.6199998E-04     8.112678    
 -7.6149998E-04     8.382697    
 -7.6099997E-04     8.636462    
 -7.6050003E-04     8.852668    
 -7.6000002E-04     9.013924    
 -7.5950002E-04     9.108523    
 -7.5900002E-04     9.131622    
 -7.5850001E-04     9.085703    
 -7.5800001E-04     8.980276    
 -7.5750001E-04     8.830860    
 -7.5700000E-04     8.657332    
 -7.5650000E-04     8.481838    
 -7.5599999E-04     8.326467    
 -7.5549999E-04     8.210943    
 -7.5499999E-04     8.150578    
 -7.5449998E-04     8.154678    
 -7.5399998E-04     8.225609    
 -7.5349997E-04     8.358572    
 -7.5299997E-04     8.542151    
 -7.5250003E-04     8.759550    
 -7.5200002E-04     8.990397    
 -7.5150002E-04     9.212927    
 -7.5100001E-04     9.406303    
 -7.5050001E-04     9.552852    
 -7.5000001E-04     9.639945    
 -7.4950000E-04     9.661366    
 -7.4900000E-04     9.617982    
 -7.4850000E-04     9.517683    
 -7.4799999E-04     9.374564    
 -7.4749999E-04     9.207457    
 -7.4699998E-04     9.037957    
 -7.4649998E-04     8.888157    
 -7.4599998E-04     8.778317    