 -1.2000001E-03    1.0000000E-24
 -1.1995001E-03    1.0000000E-24
 -1.1990000E-03    1.0000000E-24
 -1.1985000E-03    1.0000000E-24
 -1.1980000E-03    1.0000000E-24
 -1.1975000E-03    1.0000000E-24
 -1.1970000E-03    1.0000000E-24
 -1.1965000E-03    1.0000000E-24
 -1.1960000E-03    1.0000001E-24
 -1.1955000E-03    1.0000001E-24
 -1.1950000E-03    1.0000001E-24
 -1.1945000E-03    1.0000001E-24
 -1.1940000E-03    1.0000001E-24
 -1.1935000E-03    1.0000001E-24
 -1.1930000E-03    1.0000001E-24
 -1.1925000E-03    1.0000001E-24
 -1.1920000E-03    1.0000001E-24
 -1.1915000E-03    1.0000001E-24
 -1.1910000E-03    1.0000001E-24
 -1.1905000E-03    1.0000001E-24
 -1.1900000E-03    1.0000001E-24
 -1.1895000E-03    1.0000001E-24
 -1.1890000E-03    1.0000001E-24
 -1.1885000E-03    1.0000001E-24
 -1.1880000E-03    1.0000001E-24
 -1.1875000E-03    1.0000001E-24
 -1.1870000E-03    1.0000002E-24
 -1.1865000E-03    1.0000002E-24
 -1.1860000E-03    1.0000002E-24
 -1.1854999E-03    1.0000002E-24
 -1.1849999E-03    1.0000002E-24
 -1.1845001E-03    1.0000002E-24
 -1.1840001E-03    1.0000002E-24
 -1.1835000E-03    1.0000002E-24
 -1.1830000E-03    1.0000002E-24
 -1.1825000E-03    1.0000002E-24
 -1.1820000E-03    1.0000002E-24
 -1.1815000E-03    1.0000001E-24
 -1.1810000E-03    1.0000001E-24
 -1.1805000E-03    1.0000001E-24
 -1.1800000E-03    1.0000001E-24
 -1.1795000E-03    1.0000001E-24
 -1.1790000E-03    1.0000001E-24
 -1.1785000E-03    1.0000001E-24
 -1.1780000E-03    1.0000001E-24
 -1.1775000E-03    1.0000001E-24
 -1.1770000E-03    1.0000001E-24
 -1.1765000E-03    1.0000001E-24
 -1.1760000E-03    1.0000001E-24
 -1.1755000E-03    1.0000001E-24
 -1.1750000E-03    1.0000001E-24
 -1.1745000E-03    1.0000001E-24
 -1.1740000E-03    1.0000001E-24
 -1.1735000E-03    1.0000001E-24
 -1.1730000E-03    1.0000001E-24
 -1.1725000E-03    1.0000001E-24
 -1.1720000E-03    1.0000001E-24
 -1.1715000E-03    1.0000001E-24
 -1.1710000E-03    1.0000001E-24
 -1.1704999E-03    1.0000001E-24
 -1.1699999E-03    1.0000001E-24
 -1.1695001E-03    1.0000001E-24
 -1.1690001E-03    1.0000001E-24
 -1.1685000E-03    1.0000001E-24
 -1.1680000E-03    1.0000001E-24
 -1.1675000E-03    1.0000001E-24
 -1.1670000E-03    1.0000001E-24
 -1.1665000E-03    1.0000001E-24
 -1.1660000E-03    1.0000001E-24
 -1.1655000E-03    1.0000001E-24
 -1.1650000E-03    1.0000001E-24
 -1.1645000E-03    1.0000001E-24
 -1.1640000E-03    1.0000001E-24
 -1.1635000E-03    1.0000001E-24
 -1.1630000E-03    1.0000001E-24
 -1.1625000E-03    1.0000001E-24
 -1.1620000E-03    1.0000001E-24
 -1.1615000E-03    1.0000001E-24
 -1.1610000E-03    1.0000002E-24
 -1.1605000E-03    1.0000003E-24
 -1.1600000E-03    1.0000003E-24
 -1.1595000E-03    1.0000003E-24
 -1.1590000E-03    1.0000003E-24
 -1.1585000E-03    1.0000003E-24
 -1.1580000E-03    1.0000003E-24
 -1.1575000E-03    1.0000003E-24
 -1.1570000E-03    1.0000003E-24
 -1.1565000E-03    1.0000003E-24
 -1.1560000E-03    1.0000003E-24
 -1.1555000E-03    1.0000003E-24
 -1.1549999E-03    1.0000003E-24
 -1.1544999E-03    1.0000003E-24
 -1.1540001E-03    1.0000002E-24
 -1.1535001E-03    1.0000001E-24
 -1.1530000E-03    1.0000000E-24
 -1.1525000E-03    1.0000000E-24
 -1.1520000E-03    1.0000000E-24
 -1.1515000E-03    1.0000000E-24
 -1.1510000E-03    1.0000000E-24
 -1.1505000E-03    1.0000000E-24
 -1.1500000E-03    1.0000000E-24
 -1.1495000E-03    1.0000000E-24
 -1.1490000E-03    1.0000000E-24
 -1.1485000E-03    1.0000000E-24
 -1.1480000E-03    1.0000000E-24
 -1.1475000E-03    1.0000000E-24
 -1.1470000E-03    1.0000000E-24
 -1.1465000E-03    1.0000000E-24
 -1.1460000E-03    1.0000000E-24
 -1.1455000E-03    1.0000000E-24
 -1.1450000E-03    1.0000000E-24
 -1.1445000E-03    1.0000000E-24
 -1.1440000E-03    1.0000000E-24
 -1.1435000E-03    1.0000000E-24
 -1.1430000E-03    1.0000000E-24
 -1.1425000E-03    1.0000000E-24
 -1.1420000E-03    1.0000000E-24
 -1.1415000E-03    1.0000000E-24
 -1.1410000E-03    1.0000000E-24
 -1.1405000E-03    1.0000000E-24
 -1.1399999E-03    1.0000000E-24
 -1.1394999E-03    1.0000000E-24
 -1.1390001E-03    1.0000000E-24
 -1.1385001E-03    1.0000001E-24
 -1.1380001E-03    1.0000002E-24
 -1.1375000E-03    1.0000003E-24
 -1.1370000E-03    1.0000004E-24
 -1.1365000E-03    1.0000004E-24
 -1.1360000E-03    1.0000004E-24
 -1.1355000E-03    1.0000004E-24
 -1.1350000E-03    1.0000004E-24
 -1.1345000E-03    1.0000004E-24
 -1.1340000E-03    1.0000004E-24
 -1.1335000E-03    1.0000004E-24
 -1.1330000E-03    1.0000004E-24
 -1.1325000E-03    1.0000004E-24
 -1.1320000E-03    1.0000004E-24
 -1.1315000E-03    1.0000004E-24
 -1.1310000E-03    1.0000003E-24
 -1.1305000E-03    1.0000002E-24
 -1.1300000E-03    1.0000001E-24
 -1.1295000E-03    1.0000000E-24
 -1.1290000E-03    1.0000000E-24
 -1.1285000E-03    1.0000000E-24
 -1.1280000E-03    1.0000000E-24
 -1.1275000E-03    1.0000000E-24
 -1.1270000E-03    1.0000000E-24
 -1.1265000E-03    1.0000000E-24
 -1.1260000E-03    1.0000000E-24
 -1.1255000E-03    1.0000000E-24
 -1.1250000E-03    1.0000001E-24
 -1.1244999E-03    1.0000002E-24
 -1.1239999E-03    1.0000003E-24
 -1.1235001E-03    1.0000003E-24
 -1.1230001E-03    1.0000003E-24
 -1.1225000E-03    1.0000003E-24
 -1.1220000E-03    1.0000003E-24
 -1.1215000E-03    1.0000003E-24
 -1.1210000E-03    1.0000003E-24
 -1.1205000E-03    1.0000003E-24
 -1.1200000E-03    1.0000003E-24
 -1.1195000E-03    1.0000002E-24
 -1.1190000E-03    1.0000001E-24
 -1.1185000E-03    1.0000000E-24
 -1.1180000E-03    1.0000000E-24
 -1.1175000E-03    1.0000000E-24
 -1.1170000E-03    1.0000000E-24
 -1.1165000E-03    1.0000000E-24
 -1.1160000E-03    1.0000000E-24
 -1.1155000E-03    1.0000000E-24
 -1.1150000E-03    1.0000000E-24
 -1.1145000E-03    1.0000000E-24
 -1.1140000E-03    1.0000000E-24
 -1.1135000E-03    1.0000000E-24
 -1.1130000E-03    1.0000000E-24
 -1.1125000E-03    1.0000000E-24
 -1.1120000E-03    1.0000000E-24
 -1.1115000E-03    1.0000000E-24
 -1.1110000E-03    1.0000000E-24
 -1.1105000E-03    9.9999992E-25
 -1.1100000E-03    9.9999992E-25
 -1.1094999E-03    9.9999992E-25
 -1.1089999E-03    9.9999992E-25
 -1.1084999E-03    9.9999992E-25
 -1.1080001E-03    9.9999992E-25
 -1.1075001E-03    9.9999992E-25
 -1.1070000E-03    9.9999992E-25
 -1.1065000E-03    9.9999992E-25
 -1.1060000E-03    9.9999992E-25
 -1.1055000E-03    9.9999992E-25
 -1.1050000E-03    9.9999992E-25
 -1.1045000E-03    9.9999992E-25
 -1.1040000E-03    1.0000000E-24
 -1.1035000E-03    1.0000001E-24
 -1.1030000E-03    1.0000002E-24
 -1.1025000E-03    1.0000003E-24
 -1.1020000E-03    1.0000004E-24
 -1.1015000E-03    1.0000005E-24
 -1.1010000E-03    1.0000006E-24
 -1.1005000E-03    1.0000006E-24
 -1.1000000E-03    1.0000006E-24
 -1.0995000E-03    1.0000006E-24
 -1.0990000E-03    1.0000006E-24
 -1.0985000E-03    1.0000006E-24
 -1.0980000E-03    1.0000005E-24
 -1.0975000E-03    1.0000004E-24
 -1.0970000E-03    1.0000003E-24
 -1.0965000E-03    1.0000002E-24
 -1.0960000E-03    1.0000001E-24
 -1.0955000E-03    1.0000000E-24
 -1.0950000E-03    9.9999992E-25
 -1.0945000E-03    9.9999982E-25
 -1.0939999E-03    9.9999982E-25
 -1.0934999E-03    9.9999982E-25
 -1.0930001E-03    9.9999982E-25
 -1.0925001E-03    9.9999992E-25
 -1.0920000E-03    1.0000000E-24
 -1.0915000E-03    1.0000001E-24
 -1.0910000E-03    1.0000002E-24
 -1.0905000E-03    1.0000003E-24
 -1.0900000E-03    1.0000004E-24
 -1.0895000E-03    1.0000005E-24
 -1.0890000E-03    1.0000006E-24
 -1.0885000E-03    1.0000007E-24
 -1.0880000E-03    1.0000007E-24
 -1.0875000E-03    1.0000007E-24
 -1.0870000E-03    1.0000007E-24
 -1.0865000E-03    1.0000006E-24
 -1.0860000E-03    1.0000005E-24
 -1.0855000E-03    1.0000004E-24
 -1.0850000E-03    1.0000003E-24
 -1.0845000E-03    1.0000002E-24
 -1.0840000E-03    1.0000001E-24
 -1.0835000E-03    1.0000001E-24
 -1.0830000E-03    1.0000001E-24
 -1.0825000E-03    1.0000001E-24
 -1.0820000E-03    1.0000001E-24
 -1.0815000E-03    1.0000001E-24
 -1.0810000E-03    1.0000001E-24
 -1.0805000E-03    1.0000001E-24
 -1.0800000E-03    1.0000000E-24
 -1.0795000E-03    9.9999992E-25
 -1.0790000E-03    9.9999982E-25
 -1.0784999E-03    9.9999972E-25
 -1.0779999E-03    9.9999953E-25
 -1.0775001E-03    9.9999933E-25
 -1.0770001E-03    9.9999923E-25
 -1.0765000E-03    9.9999913E-25
 -1.0760000E-03    9.9999903E-25
 -1.0755000E-03    9.9999903E-25
 -1.0750000E-03    9.9999903E-25
 -1.0745000E-03    9.9999913E-25
 -1.0740000E-03    9.9999923E-25
 -1.0735000E-03    9.9999943E-25
 -1.0730000E-03    9.9999963E-25
 -1.0725000E-03    9.9999982E-25
 -1.0720000E-03    1.0000000E-24
 -1.0715000E-03    1.0000002E-24
 -1.0710000E-03    1.0000004E-24
 -1.0705000E-03    1.0000005E-24
 -1.0700000E-03    1.0000006E-24
 -1.0695000E-03    1.0000006E-24
 -1.0690000E-03    1.0000005E-24
 -1.0685000E-03    1.0000004E-24
 -1.0680000E-03    1.0000002E-24
 -1.0675000E-03    9.9999992E-25
 -1.0670000E-03    9.9999963E-25
 -1.0665000E-03    9.9999943E-25
 -1.0660000E-03    9.9999943E-25
 -1.0655000E-03    9.9999943E-25
 -1.0650000E-03    9.9999963E-25
 -1.0645000E-03    9.9999982E-25
 -1.0640000E-03    1.0000002E-24
 -1.0634999E-03    1.0000009E-24
 -1.0629999E-03    1.0000018E-24
 -1.0625001E-03    1.0000032E-24
 -1.0620001E-03    1.0000049E-24
 -1.0615001E-03    1.0000060E-24
 -1.0610000E-03    1.0000070E-24
 -1.0605000E-03    1.0000079E-24
 -1.0600000E-03    1.0000082E-24
 -1.0595000E-03    1.0000083E-24
 -1.0590000E-03    1.0000076E-24
 -1.0585000E-03    1.0000067E-24
 -1.0580000E-03    1.0000052E-24
 -1.0575000E-03    1.0000029E-24
 -1.0570000E-03    9.9999923E-25
 -1.0565000E-03    9.9999381E-25
 -1.0560000E-03    9.9998789E-25
 -1.0555000E-03    9.9998178E-25
 -1.0550000E-03    9.9997468E-25
 -1.0545000E-03    9.9996965E-25
 -1.0540000E-03    9.9996620E-25
 -1.0535000E-03    9.9996245E-25
 -1.0530000E-03    9.9996492E-25
 -1.0525000E-03    9.9997458E-25
 -1.0520000E-03    9.9998819E-25
 -1.0515000E-03    1.0000089E-24
 -1.0510000E-03    1.0000309E-24
 -1.0505000E-03    1.0000496E-24
 -1.0500000E-03    1.0000658E-24
 -1.0495000E-03    1.0000737E-24
 -1.0490000E-03    1.0000753E-24
 -1.0485000E-03    1.0000674E-24
 -1.0479999E-03    1.0000484E-24
 -1.0474999E-03    1.0000288E-24
 -1.0470001E-03    1.0000136E-24
 -1.0465001E-03    1.0000062E-24
 -1.0460000E-03    1.0000093E-24
 -1.0455000E-03    1.0000066E-24
 -1.0450000E-03    1.0000099E-24
 -1.0445000E-03    1.0000196E-24
 -1.0440000E-03    1.0000068E-24
 -1.0435000E-03    9.9996768E-25
 -1.0430000E-03    9.9989086E-25
 -1.0425000E-03    9.9979620E-25
 -1.0420000E-03    9.9966949E-25
 -1.0415000E-03    9.9955974E-25
 -1.0410000E-03    9.9944723E-25
 -1.0405000E-03    9.9930740E-25
 -1.0400000E-03    9.9920445E-25
 -1.0395000E-03    9.9915121E-25
 -1.0390000E-03    9.9917517E-25
 -1.0385000E-03    9.9926500E-25
 -1.0380000E-03    9.9941508E-25
 -1.0375000E-03    9.9968556E-25
 -1.0370000E-03    9.9997113E-25
 -1.0365000E-03    1.0003282E-24
 -1.0360000E-03    1.0007117E-24
 -1.0355000E-03    1.0012269E-24
 -1.0350000E-03    1.0016856E-24
 -1.0345000E-03    1.0021594E-24
 -1.0340000E-03    1.0024958E-24
 -1.0335000E-03    1.0026823E-24
 -1.0329999E-03    1.0026318E-24
 -1.0324999E-03    1.0023138E-24
 -1.0319999E-03    1.0015592E-24
 -1.0315001E-03    1.0005110E-24
 -1.0310001E-03    9.9895074E-25
 -1.0305000E-03    9.9702907E-25
 -1.0300000E-03    9.9495683E-25
 -1.0295000E-03    9.9332133E-25
 -1.0290000E-03    9.9192672E-25
 -1.0285000E-03    9.9135282E-25
 -1.0280000E-03    9.9114032E-25
 -1.0275000E-03    9.9199042E-25
 -1.0270000E-03    9.9399994E-25
 -1.0265000E-03    9.9747014E-25
 -1.0260000E-03    1.0018288E-24
 -1.0255000E-03    1.0069102E-24
 -1.0250000E-03    1.0124133E-24
 -1.0245000E-03    1.0187295E-24
 -1.0240000E-03    1.0238412E-24
 -1.0235000E-03    1.0276276E-24
 -1.0230000E-03    1.0299985E-24
 -1.0225000E-03    1.0297794E-24
 -1.0220000E-03    1.0275124E-24
 -1.0215000E-03    1.0225726E-24
 -1.0210000E-03    1.0161118E-24
 -1.0205000E-03    1.0076031E-24
 -1.0200000E-03    9.9831127E-25
 -1.0195000E-03    9.8673069E-25
 -1.0190000E-03    9.7430682E-25
 -1.0185000E-03    9.6091916E-25
 -1.0180000E-03    9.4897709E-25
 -1.0174999E-03    9.3896250E-25
 -1.0169999E-03    9.3171868E-25
 -1.0165001E-03    9.3098011E-25
 -1.0160001E-03    9.3469880E-25
 -1.0155000E-03    9.4379703E-25
 -1.0150000E-03    9.5897886E-25
 -1.0145000E-03    9.8427990E-25
 -1.0140000E-03    1.0156043E-24
 -1.0135000E-03    1.0447603E-24
 -1.0130000E-03    1.0700613E-24
 -1.0125000E-03    1.0881344E-24
 -1.0120000E-03    1.0989795E-24
 -1.0115000E-03    1.1025965E-24
 -1.0110000E-03    1.0929621E-24
 -1.0105000E-03    1.0753770E-24
 -1.0100000E-03    1.0545392E-24
 -1.0095000E-03    1.0283406E-24
 -1.0090000E-03    1.0006965E-24
 -1.0085000E-03    9.6582440E-25
 -1.0080000E-03    9.3384348E-25
 -1.0075000E-03    8.9993508E-25
 -1.0070000E-03    8.4675196E-25
 -1.0065000E-03    8.1862596E-25
 -1.0060000E-03    7.8375382E-25
 -1.0055000E-03    7.5466408E-25
 -1.0050000E-03    7.4484907E-25
 -1.0045000E-03    7.6346422E-25
 -1.0040000E-03    7.5654039E-25
 -1.0035000E-03    7.3564243E-25
 -1.0030000E-03    6.9354225E-25
 -1.0025000E-03    6.3216739E-25
 -1.0019999E-03    5.9970458E-25
 -1.0014999E-03    5.8651651E-25
 -1.0010001E-03    5.6561854E-25
 -1.0005001E-03    5.7941503E-25
 -1.0000000E-03    6.6260046E-25
 -9.9950004E-04    8.0360999E-25
 -9.9900004E-04    1.1065271E-24
 -9.9850004E-04    1.4007705E-24
 -9.9800003E-04    1.6208064E-24
 -9.9750003E-04    1.9102312E-24
 -9.9700002E-04    2.1418319E-24
 -9.9650002E-04    2.3425931E-24
 -9.9600002E-04    2.3428972E-24
 -9.9550001E-04    2.2815222E-24
 -9.9500001E-04    1.9117519E-24
 -9.9450001E-04    1.1719075E-24
 -9.9400000E-04    4.3977290E-25
 -9.9350000E-04   -2.6923211E-25
 -9.9299999E-04   -1.3328916E-24
 -9.9249999E-04   -2.6644696E-24
 -9.9199999E-04   -3.9362960E-24
 -9.9149998E-04   -5.1927029E-24
 -9.9099998E-04   -6.1715539E-24
 -9.9049998E-04   -6.6723922E-24
 -9.8999997E-04   -6.5564399E-24
 -9.8949997E-04   -6.1320923E-24
 -9.8899996E-04   -4.8750776E-24
 -9.8849996E-04   -1.9218886E-24
 -9.8799996E-04    2.4190792E-24
 -9.8749995E-04    7.6852328E-24
 -9.8699995E-04    1.3676115E-23
 -9.8649994E-04    1.9859745E-23
 -9.8600006E-04    2.6166734E-23
 -9.8550005E-04    3.2412045E-23
 -9.8500005E-04    3.6498587E-23
 -9.8450005E-04    3.6822708E-23
 -9.8400004E-04    3.4741346E-23
 -9.8350004E-04    3.0007783E-23
 -9.8300003E-04    2.0093180E-23
 -9.8250003E-04    6.3544765E-24
 -9.8200003E-04   -1.0838255E-23
 -9.8150002E-04   -2.9943040E-23
 -9.8100002E-04   -4.7413330E-23
 -9.8050002E-04   -5.9305515E-23
 -9.8000001E-04   -6.8021229E-23
 -9.7950001E-04   -6.8040200E-23
 -9.7900000E-04   -5.8683956E-23
 -9.7850000E-04   -3.4524737E-23
 -9.7800000E-04   -1.7304516E-24
 -9.7749999E-04    4.0439048E-23
 -9.7699999E-04    9.0996898E-23
 -9.7649998E-04    1.3464669E-22
 -9.7599998E-04    1.7730963E-22
 -9.7549998E-04    2.0899369E-22
 -9.7499997E-04    2.3265947E-22
 -9.7450003E-04    2.4750515E-22
 -9.7400002E-04    2.4791793E-22
 -9.7350002E-04    2.2242550E-22
 -9.7300002E-04    1.7176803E-22
 -9.7250001E-04    9.4958620E-23
 -9.7200001E-04   -9.9764273E-24
 -9.7150001E-04   -1.4056995E-22
 -9.7100000E-04   -2.8300586E-22
 -9.7050000E-04   -4.1705339E-22
 -9.6999999E-04   -5.2938994E-22
 -9.6949999E-04   -6.3284467E-22
 -9.6899999E-04   -7.0718687E-22
 -9.6849998E-04   -7.5570098E-22
 -9.6799998E-04   -7.6103974E-22
 -9.6749997E-04   -7.3381200E-22
 -9.6700003E-04   -6.3651679E-22
 -9.6650003E-04   -4.9283900E-22
 -9.6600002E-04   -2.9389673E-22
 -9.6550002E-04   -6.3374813E-23
 -9.6500001E-04    2.2635898E-22
 -9.6450001E-04    5.4175130E-22
 -9.6400001E-04    8.5714359E-22
 -9.6350000E-04    1.1626672E-21
 -9.6300000E-04    1.4617762E-21
 -9.6249999E-04    1.7355968E-21
 -9.6199999E-04    1.8830987E-21
 -9.6149999E-04    1.8944132E-21
 -9.6099998E-04    1.7715141E-21
 -9.6049998E-04    1.4986116E-21
 -9.5999998E-04    1.2020242E-21
 -9.5949997E-04    7.3964356E-22
 -9.5900003E-04    1.5094420E-22
 -9.5850002E-04   -4.8907210E-22
 -9.5800002E-04   -1.1093510E-21
 -9.5750001E-04   -1.7059453E-21
 -9.5700001E-04   -2.1831288E-21
 -9.5650001E-04   -2.3795492E-21
 -9.5600000E-04   -2.3588594E-21
 -9.5550000E-04   -2.2079034E-21
 -9.5500000E-04   -1.7529930E-21
 -9.5449999E-04   -9.5860115E-22
 -9.5399999E-04   -1.3262966E-22
 -9.5349998E-04    7.0913173E-22
 -9.5299998E-04    1.4877338E-21
 -9.5249998E-04    2.1400172E-21
 -9.5199997E-04    2.5791378E-21
 -9.5150003E-04    2.8643073E-21
 -9.5100002E-04    2.9106557E-21
 -9.5050002E-04    2.7803552E-21
 -9.5000002E-04    2.4961037E-21
 -9.4950001E-04    2.0223742E-21
 -9.4900001E-04    1.2644276E-21
 -9.4850000E-04   -1.2511258E-22
 -9.4800000E-04   -1.8936087E-21
 -9.4750000E-04   -3.6936846E-21
 -9.4699999E-04   -5.2569129E-21
 -9.4649999E-04   -6.7411920E-21
 -9.4599999E-04   -8.3044200E-21
 -9.4549998E-04   -9.3150037E-21
 -9.4499998E-04   -1.0053213E-20
 -9.4449997E-04   -1.0211146E-20
 -9.4400003E-04   -9.1453662E-21
 -9.4350002E-04   -7.6374709E-21
 -9.4300002E-04   -5.3400842E-21
 -9.4250002E-04   -2.1900461E-21
 -9.4200001E-04    1.4021077E-21
 -9.4150001E-04    5.0890001E-21
 -9.4100001E-04    9.6285439E-21
 -9.4050000E-04    1.3757552E-20
 -9.4000000E-04    1.6497054E-20
 -9.3949999E-04    1.7847050E-20
 -9.3899999E-04    1.7578588E-20
 -9.3849999E-04    1.5462715E-20
 -9.3799998E-04    1.1736278E-20
 -9.3749998E-04    5.7361050E-21
 -9.3699998E-04   -1.7798923E-21
 -9.3649997E-04   -1.0053802E-20
 -9.3600003E-04   -1.9464579E-20
 -9.3550002E-04   -2.8306922E-20
 -9.3500002E-04   -3.6265036E-20
 -9.3450001E-04   -4.1254660E-20
 -9.3400001E-04   -4.3402115E-20
 -9.3350001E-04   -4.2960035E-20
 -9.3300000E-04   -3.8309962E-20
 -9.3250000E-04   -3.1133514E-20
 -9.3200000E-04   -2.0262245E-20
 -9.3149999E-04   -5.1593000E-21
 -9.3099999E-04    9.0594162E-21
 -9.3049998E-04    2.5425550E-20
 -9.2999998E-04    4.2675915E-20
 -9.2949998E-04    5.8789413E-20
 -9.2899997E-04    7.2123900E-20
 -9.2850003E-04    7.9647728E-20
 -9.2800002E-04    8.1929332E-20
 -9.2750002E-04    7.6947604E-20
 -9.2700002E-04    6.4670971E-20
 -9.2650001E-04    4.2920437E-20
 -9.2600001E-04    1.6559272E-20
 -9.2550000E-04   -1.3086180E-20
 -9.2500000E-04   -4.8163334E-20
 -9.2450000E-04   -8.6272133E-20
 -9.2399999E-04   -1.2337038E-19
 -9.2349999E-04   -1.6021599E-19
 -9.2299999E-04   -1.8619820E-19
 -9.2249998E-04   -2.0156963E-19
 -9.2199998E-04   -2.0317232E-19
 -9.2149997E-04   -1.8601669E-19
 -9.2100003E-04   -1.5507653E-19
 -9.2050002E-04   -1.0790441E-19
 -9.2000002E-04   -4.7595139E-20
 -9.1950002E-04    2.6861824E-20
 -9.1900001E-04    9.5255496E-20
 -9.1850001E-04    1.6668082E-19
 -9.1800001E-04    2.3633768E-19
 -9.1750000E-04    2.9209950E-19
 -9.1700000E-04    3.3143987E-19
 -9.1649999E-04    3.4779023E-19
 -9.1599999E-04    3.3155038E-19
 -9.1549999E-04    2.8373086E-19
 -9.1499998E-04    2.0625802E-19
 -9.1449998E-04    9.6131790E-20
 -9.1399997E-04   -3.9005534E-20
 -9.1349997E-04   -1.8803792E-19
 -9.1300003E-04   -3.3959667E-19
 -9.1250002E-04   -4.9014489E-19
 -9.1200002E-04   -6.2856648E-19
 -9.1150001E-04   -7.4071382E-19
 -9.1100001E-04   -8.0940750E-19
 -9.1050001E-04   -8.4121616E-19
 -9.1000000E-04   -8.1289712E-19
 -9.0950000E-04   -7.2369246E-19
 -9.0899999E-04   -5.7777067E-19
 -9.0849999E-04   -3.8972160E-19
 -9.0799999E-04   -1.6226109E-19
 -9.0749998E-04    1.0688456E-19
 -9.0699998E-04    3.8411463E-19
 -9.0649998E-04    6.5881834E-19
 -9.0599997E-04    9.1735323E-19
 -9.0550003E-04    1.1395083E-18
 -9.0500002E-04    1.3166940E-18
 -9.0450002E-04    1.4074777E-18
 -9.0400001E-04    1.3982170E-18
 -9.0350001E-04    1.2767852E-18
 -9.0300001E-04    1.0444456E-18
 -9.0250000E-04    6.8111354E-19
 -9.0200000E-04    2.0542100E-19
 -9.0150000E-04   -3.4555749E-19
 -9.0099999E-04   -9.1371529E-19
 -9.0049999E-04   -1.4662096E-18
 -8.9999998E-04   -1.9904085E-18
 -8.9949998E-04   -2.4741855E-18
 -8.9899998E-04   -2.8538759E-18
 -8.9849997E-04   -3.0668255E-18
 -8.9800003E-04   -3.0372432E-18
 -8.9750002E-04   -2.7914033E-18
 -8.9700002E-04   -2.3181898E-18
 -8.9650002E-04   -1.6615614E-18
 -8.9600001E-04   -8.4324518E-19
 -8.9550001E-04    6.0967761E-20
 -8.9500000E-04    1.0815201E-18
 -8.9450000E-04    2.0700507E-18
 -8.9400000E-04    3.0290227E-18
 -8.9349999E-04    3.8803713E-18
 -8.9299999E-04    4.4982826E-18
 -8.9249999E-04    4.8049449E-18
 -8.9199998E-04    4.7528619E-18
 -8.9149998E-04    4.2642215E-18
 -8.9099997E-04    3.3471082E-18
 -8.9050003E-04    1.9772685E-18
 -8.9000002E-04    2.2746226E-19
 -8.8950002E-04   -1.8517832E-18
 -8.8900002E-04   -4.1230330E-18
 -8.8850001E-04   -6.3811459E-18
 -8.8800001E-04   -8.4664550E-18
 -8.8750001E-04   -1.0104091E-17
 -8.8700000E-04   -1.1258178E-17
 -8.8650000E-04   -1.1722059E-17
 -8.8599999E-04   -1.1357290E-17
 -8.8549999E-04   -1.0054731E-17
 -8.8499999E-04   -7.7941705E-18
 -8.8449998E-04   -4.5836936E-18
 -8.8399998E-04   -6.2540975E-19
 -8.8349998E-04    3.9634570E-18
 -8.8299997E-04    8.9080371E-18
 -8.8250003E-04    1.3937504E-17
 -8.8200002E-04    1.8587003E-17
 -8.8150002E-04    2.2349241E-17
 -8.8100001E-04    2.4938230E-17
 -8.8050001E-04    2.6118512E-17
 -8.8000001E-04    2.5536397E-17
 -8.7950000E-04    2.3094869E-17
 -8.7900000E-04    1.8899029E-17
 -8.7850000E-04    1.3102477E-17
 -8.7799999E-04    5.8830715E-18
 -8.7749999E-04   -2.4519809E-18
 -8.7699998E-04   -1.1344857E-17
 -8.7649998E-04   -2.0245818E-17
 -8.7599998E-04   -2.8580870E-17
 -8.7549997E-04   -3.5606248E-17
 -8.7500003E-04   -4.0800512E-17
 -8.7450002E-04   -4.3544190E-17
 -8.7400002E-04   -4.3425993E-17
 -8.7350002E-04   -4.0074039E-17
 -8.7300001E-04   -3.3617676E-17
 -8.7250001E-04   -2.4396448E-17
 -8.7200000E-04   -1.2555875E-17
 -8.7150000E-04    1.0147579E-18
 -8.7100000E-04    1.5587858E-17
 -8.7049999E-04    2.9983100E-17
 -8.6999999E-04    4.3375876E-17
 -8.6949999E-04    5.4019956E-17
 -8.6899998E-04    6.1155408E-17
 -8.6849998E-04    6.4418437E-17
 -8.6799997E-04    6.2830826E-17
 -8.6750003E-04    5.6133879E-17
 -8.6700002E-04    4.4101227E-17
 -8.6650002E-04    2.6991572E-17
 -8.6600002E-04    6.0984205E-18
 -8.6550001E-04   -1.7640437E-17
 -8.6500001E-04   -4.1896698E-17
 -8.6450001E-04   -6.5279843E-17
 -8.6400000E-04   -8.6237668E-17
 -8.6350000E-04   -1.0261972E-16
 -8.6299999E-04   -1.1332654E-16
 -8.6249999E-04   -1.1698249E-16
 -8.6199999E-04   -1.1226301E-16
 -8.6149998E-04   -9.8844708E-17
 -8.6099998E-04   -7.7762402E-17
 -8.6049997E-04   -4.8013626E-17
 -8.5999997E-04   -1.1279928E-17
 -8.5950003E-04    3.0369083E-17
 -8.5900002E-04    7.4734445E-17
 -8.5850002E-04    1.1916449E-16
 -8.5800001E-04    1.6042545E-16
 -8.5750001E-04    1.9576862E-16
 -8.5700001E-04    2.2162072E-16
 -8.5650000E-04    2.3554430E-16
 -8.5600000E-04    2.3498062E-16
 -8.5549999E-04    2.1773076E-16
 -8.5499999E-04    1.8217782E-16
 -8.5449999E-04    1.3032674E-16
 -8.5399998E-04    6.4117774E-17
 -8.5349998E-04   -1.3085971E-17
 -8.5299998E-04   -9.7339306E-17
 -8.5249997E-04   -1.8437369E-16
 -8.5200003E-04   -2.6720417E-16
 -8.5150002E-04   -3.4007468E-16
 -8.5100002E-04   -3.9655002E-16
 -8.5050002E-04   -4.3016269E-16
 -8.5000001E-04   -4.3643394E-16
 -8.4950001E-04   -4.1279290E-16
 -8.4900000E-04   -3.5707299E-16
 -8.4850000E-04   -2.6908016E-16
 -8.4800000E-04   -1.5146611E-16
 -8.4749999E-04   -1.0180939E-17
 -8.4699999E-04    1.4701433E-16
 -8.4649998E-04    3.1378156E-16
 -8.4599998E-04    4.7938465E-16
 -8.4549998E-04    6.3425160E-16
 -8.4499997E-04    7.6635295E-16
 -8.4450003E-04    8.6327099E-16
 -8.4400002E-04    9.1161794E-16
 -8.4350002E-04    9.0274357E-16
 -8.4300002E-04    8.3352722E-16
 -8.4250001E-04    7.0396892E-16
 -8.4200001E-04    5.1607362E-16
 -8.4150000E-04    2.7915456E-16
 -8.4100000E-04    3.0423306E-18
 -8.4050000E-04   -2.9441269E-16
 -8.3999999E-04   -5.9600690E-16
 -8.3949999E-04   -8.7483543E-16
 -8.3899999E-04   -1.1090381E-15
 -8.3849998E-04   -1.2802472E-15
 -8.3799998E-04   -1.3715178E-15
 -8.3749997E-04   -1.3690093E-15
 -8.3700003E-04   -1.2647021E-15
 -8.3650002E-04   -1.0544085E-15
 -8.3600002E-04   -7.4247790E-16
 -8.3550002E-04   -3.4549939E-16
 -8.3500001E-04    1.1835321E-16
 -8.3450001E-04    6.1130966E-16
 -8.3400001E-04    1.1043954E-15
 -8.3350000E-04    1.5619099E-15
 -8.3300000E-04    1.9485404E-15
 -8.3249999E-04    2.2310439E-15
 -8.3199999E-04    2.3818687E-15
 -8.3149999E-04    2.3777318E-15
 -8.3099998E-04    2.2036284E-15
 -8.3049998E-04    1.8466237E-15
 -8.2999998E-04    1.3137026E-15
 -8.2949997E-04    6.3888402E-16
 -8.2900003E-04   -1.4995691E-16
 -8.2850002E-04   -1.0144193E-15
 -8.2800002E-04   -1.8876127E-15
 -8.2750001E-04   -2.7159218E-15
 -8.2700001E-04   -3.4190197E-15
 -8.2650001E-04   -3.9578428E-15
 -8.2600000E-04   -4.2726307E-15
 -8.2550000E-04   -4.3245788E-15
 -8.2500000E-04   -4.0986823E-15
 -8.2449999E-04   -3.5825237E-15
 -8.2399999E-04   -2.7776552E-15
 -8.2349998E-04   -1.7146035E-15
 -8.2299998E-04   -4.3631281E-16
 -8.2249998E-04    9.7805433E-16
 -8.2199997E-04    2.4390523E-15
 -8.2150003E-04    3.8502501E-15
 -8.2100002E-04    5.0940689E-15
 -8.2050002E-04    6.0414163E-15
 -8.2000002E-04    6.6555571E-15
 -8.1950001E-04    6.8619859E-15
 -8.1900001E-04    6.5789528E-15
 -8.1850000E-04    5.8581980E-15
 -8.1800000E-04    4.6790257E-15
 -8.1750000E-04    3.0600620E-15
 -8.1699999E-04    1.0685691E-15
 -8.1649999E-04   -1.1707590E-15
 -8.1599999E-04   -3.4830408E-15
 -8.1549998E-04   -5.7747555E-15
 -8.1499998E-04   -7.8103570E-15
 -8.1449997E-04   -9.5220649E-15
 -8.1400003E-04   -1.0697745E-14
 -8.1350002E-04   -1.1167689E-14
 -8.1300002E-04   -1.0797374E-14
 -8.1250002E-04   -9.6530263E-15
 -8.1200001E-04   -7.6497917E-15
 -8.1150001E-04   -4.9408220E-15
 -8.1100001E-04   -1.6854766E-15
 -8.1050000E-04    1.9775814E-15
 -8.1000000E-04    5.7813726E-15
 -8.0949999E-04    9.5189368E-15
 -8.0899999E-04    1.2808948E-14
 -8.0849999E-04    1.5507052E-14
 -8.0799998E-04    1.7348339E-14
 -8.0749998E-04    1.8150684E-14
 -8.0699997E-04    1.7847860E-14
 -8.0649997E-04    1.6232905E-14
 -8.0600003E-04    1.3293404E-14
 -8.0550002E-04    9.2073405E-15
 -8.0500002E-04    4.1195879E-15
 -8.0450001E-04   -1.7463363E-15
 -8.0400001E-04   -7.9537461E-15
 -8.0350001E-04   -1.4092858E-14
 -8.0300000E-04   -1.9765016E-14
 -8.0250000E-04   -2.4369256E-14
 -8.0200000E-04   -2.7574444E-14
 -8.0149999E-04   -2.9223291E-14
 -8.0099999E-04   -2.9166780E-14
 -8.0049998E-04   -2.7293157E-14
 -7.9999998E-04   -2.3498939E-14
 -7.9949998E-04   -1.7829657E-14
 -7.9899997E-04   -1.0483996E-14
 -7.9850003E-04   -1.8510389E-15
 -7.9800002E-04    7.7504946E-15
 -7.9750002E-04    1.7515527E-14
 -7.9700002E-04    2.6812052E-14
 -7.9650001E-04    3.5245553E-14
 -7.9600001E-04    4.2230329E-14
 -7.9550000E-04    4.7104109E-14
 -7.9500000E-04    4.9560589E-14
 -7.9450000E-04    4.9086508E-14
 -7.9399999E-04    4.5400400E-14
 -7.9349999E-04    3.8700946E-14
 -7.9299998E-04    2.9104042E-14
 -7.9249998E-04    1.7329915E-14
 -7.9199998E-04    3.9663292E-15
 -7.9149997E-04   -1.0105062E-14
 -7.9100003E-04   -2.4067797E-14
 -7.9050002E-04   -3.6943993E-14
 -7.9000002E-04   -4.7870616E-14
 -7.8950002E-04   -5.6177119E-14
 -7.8900001E-04   -6.0758331E-14
 -7.8850001E-04   -6.1274838E-14
 -7.8800000E-04   -5.7147151E-14
 -7.8750000E-04   -4.8623621E-14
 -7.8700000E-04   -3.5778756E-14
 -7.8649999E-04   -1.9374168E-14
 -7.8599999E-04   -7.5096416E-16
 -7.8549999E-04    1.8948435E-14
 -7.8499998E-04    3.8250470E-14
 -7.8449998E-04    5.5565687E-14
 -7.8399997E-04    7.0070380E-14
 -7.8350003E-04    8.0241315E-14
 -7.8300002E-04    8.5436920E-14
 -7.8250002E-04    8.5094258E-14
 -7.8200002E-04    7.9196774E-14
 -7.8150001E-04    6.6742781E-14
 -7.8100001E-04    4.8560118E-14
 -7.8050001E-04    2.5178607E-14
 -7.8000000E-04   -1.2659212E-15
 -7.7950000E-04   -2.9688989E-14
 -7.7899999E-04   -5.8178282E-14
 -7.7849999E-04   -8.4829767E-14
 -7.7799999E-04   -1.0748070E-13
 -7.7749998E-04   -1.2433468E-13
 -7.7699998E-04   -1.3351455E-13
 -7.7649998E-04   -1.3425044E-13
 -7.7599997E-04   -1.2602079E-13
 -7.7550003E-04   -1.0820473E-13
 -7.7500002E-04   -8.1911569E-14
 -7.7450002E-04   -4.7108185E-14
 -7.7400001E-04   -6.7582557E-15
 -7.7350001E-04    3.6307000E-14
 -7.7300001E-04    7.8610634E-14
 -7.7250000E-04    1.1674196E-13
 -7.7200000E-04    1.4774554E-13
 -7.7150000E-04    1.6913788E-13
 -7.7099999E-04    1.7995453E-13
 -7.7049999E-04    1.7741033E-13
 -7.6999998E-04    1.6195179E-13
 -7.6949998E-04    1.3279246E-13
 -7.6899998E-04    9.0437322E-14
 -7.6849997E-04    3.6873198E-14
 -7.6800003E-04   -2.5697851E-14
 -7.6750002E-04   -9.3716105E-14
 -7.6700002E-04   -1.6113831E-13
 -7.6650002E-04   -2.2339479E-13
 -7.6600001E-04   -2.7566748E-13
 -7.6550001E-04   -3.1386685E-13
 -7.6500000E-04   -3.3461531E-13
 -7.6450000E-04   -3.3367430E-13
 -7.6400000E-04   -3.1046433E-13
 -7.6349999E-04   -2.6489330E-13
 -7.6299999E-04   -1.9850205E-13
 -7.6249999E-04   -1.1514003E-13
 -7.6199998E-04   -1.8102056E-14
 -7.6149998E-04    8.5624894E-14
 -7.6099997E-04    1.8955052E-13
 -7.6050003E-04    2.8711831E-13
 -7.6000002E-04    3.7097704E-13
 -7.5950002E-04    4.3486821E-13
 -7.5900002E-04    4.7362608E-13
 -7.5850001E-04    4.8377372E-13
 -7.5800001E-04    4.5882086E-13
 -7.5750001E-04    4.0211199E-13
 -7.5700000E-04    3.1789390E-13
 -7.5650000E-04    2.0786370E-13
 -7.5599999E-04    8.0415709E-14
 -7.5549999E-04   -6.0343996E-14
 -7.5499999E-04   -2.0587208E-13
 -7.5449998E-04   -3.4318793E-13
 -7.5399998E-04   -4.6494037E-13
 -7.5349997E-04   -5.6291717E-13
 -7.5299997E-04   -6.2850880E-13
 -7.5250003E-04   -6.5747668E-13
 -7.5200002E-04   -6.4730415E-13
 -7.5150002E-04   -5.9593823E-13
 -7.5100001E-04   -5.0188873E-13
 -7.5050001E-04   -3.6591731E-13
 -7.5000001E-04   -1.9718816E-13
 -7.4950000E-04   -7.8954177E-15
 -7.4900000E-04    1.9066915E-13
 -7.4850000E-04    3.8989601E-13
 -7.4799999E-04    5.7548004E-13
 -7.4749999E-04    7.3192402E-13
 -7.4699998E-04    8.4823419E-13
 -7.4649998E-04    9.1699315E-13
 -7.4599998E-04    9.2455796E-13