 -1.2000001E-03    1.0000000E-24
 -1.1995001E-03    1.0000000E-24
 -1.1990000E-03    1.0000000E-24
 -1.1985000E-03    1.0000000E-24
 -1.1980000E-03    1.0000000E-24
 -1.1975000E-03    1.0000000E-24
 -1.1970000E-03    1.0000000E-24
 -1.1965000E-03    1.0000000E-24
 -1.1960000E-03    1.0000001E-24
 -1.1955000E-03    1.0000001E-24
 -1.1950000E-03    1.0000001E-24
 -1.1945000E-03    1.0000001E-24
 -1.1940000E-03    1.0000001E-24
 -1.1935000E-03    1.0000001E-24
 -1.1930000E-03    1.0000001E-24
 -1.1925000E-03    1.0000001E-24
 -1.1920000E-03    1.0000001E-24
 -1.1915000E-03    1.0000001E-24
 -1.1910000E-03    1.0000001E-24
 -1.1905000E-03    1.0000001E-24
 -1.1900000E-03    1.0000001E-24
 -1.1895000E-03    1.0000001E-24
 -1.1890000E-03    1.0000001E-24
 -1.1885000E-03    1.0000001E-24
 -1.1880000E-03    1.0000001E-24
 -1.1875000E-03    1.0000001E-24
 -1.1870000E-03    1.0000001E-24
 -1.1865000E-03    1.0000001E-24
 -1.1860000E-03    1.0000001E-24
 -1.1854999E-03    1.0000002E-24
 -1.1849999E-03    1.0000003E-24
 -1.1845001E-03    1.0000003E-24
 -1.1840001E-03    1.0000003E-24
 -1.1835000E-03    1.0000003E-24
 -1.1830000E-03    1.0000003E-24
 -1.1825000E-03    1.0000003E-24
 -1.1820000E-03    1.0000004E-24
 -1.1815000E-03    1.0000005E-24
 -1.1810000E-03    1.0000005E-24
 -1.1805000E-03    1.0000005E-24
 -1.1800000E-03    1.0000005E-24
 -1.1795000E-03    1.0000005E-24
 -1.1790000E-03    1.0000005E-24
 -1.1785000E-03    1.0000005E-24
 -1.1780000E-03    1.0000005E-24
 -1.1775000E-03    1.0000005E-24
 -1.1770000E-03    1.0000004E-24
 -1.1765000E-03    1.0000003E-24
 -1.1760000E-03    1.0000002E-24
 -1.1755000E-03    1.0000001E-24
 -1.1750000E-03    1.0000000E-24
 -1.1745000E-03    9.9999992E-25
 -1.1740000E-03    9.9999982E-25
 -1.1735000E-03    9.9999972E-25
 -1.1730000E-03    9.9999982E-25
 -1.1725000E-03    9.9999972E-25
 -1.1720000E-03    9.9999992E-25
 -1.1715000E-03    1.0000006E-24
 -1.1710000E-03    1.0000013E-24
 -1.1704999E-03    1.0000036E-24
 -1.1699999E-03    1.0000071E-24
 -1.1695001E-03    1.0000111E-24
 -1.1690001E-03    1.0000150E-24
 -1.1685000E-03    1.0000170E-24
 -1.1680000E-03    1.0000161E-24
 -1.1675000E-03    1.0000086E-24
 -1.1670000E-03    9.9999499E-25
 -1.1665000E-03    9.9997675E-25
 -1.1660000E-03    9.9992981E-25
 -1.1655000E-03    9.9983387E-25
 -1.1650000E-03    9.9967580E-25
 -1.1645000E-03    9.9945285E-25
 -1.1640000E-03    9.9930050E-25
 -1.1635000E-03    9.9918148E-25
 -1.1630000E-03    9.9919430E-25
 -1.1625000E-03    9.9920712E-25
 -1.1620000E-03    9.9910693E-25
 -1.1615000E-03    9.9878093E-25
 -1.1610000E-03    9.9883132E-25
 -1.1605000E-03    9.9870106E-25
 -1.1600000E-03    9.9736611E-25
 -1.1595000E-03    9.9630223E-25
 -1.1590000E-03    9.9602140E-25
 -1.1585000E-03    9.9796920E-25
 -1.1580000E-03    9.9467669E-25
 -1.1575000E-03    9.9228762E-25
 -1.1570000E-03    9.9321897E-25
 -1.1565000E-03    9.9436114E-25
 -1.1560000E-03    9.9971968E-25
 -1.1555000E-03    1.0050782E-24
 -1.1549999E-03    1.0147735E-24
 -1.1544999E-03    1.0355517E-24
 -1.1540001E-03    1.0900606E-24
 -1.1535001E-03    1.1358959E-24
 -1.1530000E-03    1.1653477E-24
 -1.1525000E-03    1.1080636E-24
 -1.1520000E-03    1.0845100E-24
 -1.1515000E-03    1.1062520E-24
 -1.1510000E-03    1.1202841E-24
 -1.1505000E-03    1.1314249E-24
 -1.1500000E-03    1.2562863E-24
 -1.1495000E-03    1.3946399E-24
 -1.1490000E-03    1.4327654E-24
 -1.1485000E-03    1.4631809E-24
 -1.1480000E-03    1.3316893E-24
 -1.1475000E-03    1.2310372E-24
 -1.1470000E-03    1.1920640E-24
 -1.1465000E-03    7.5217803E-25
 -1.1460000E-03    4.6648935E-25
 -1.1455000E-03    8.5926852E-25
 -1.1450000E-03    1.9305156E-24
 -1.1445000E-03    3.2793179E-24
 -1.1440000E-03    5.3142976E-24
 -1.1435000E-03    8.1973629E-24
 -1.1430000E-03    1.1172946E-23
 -1.1425000E-03    1.4271887E-23
 -1.1420000E-03    1.6507323E-23
 -1.1415000E-03    2.1209915E-23
 -1.1410000E-03    2.6405939E-23
 -1.1405000E-03    3.1601964E-23
 -1.1399999E-03    4.0005292E-23
 -1.1394999E-03    4.6681611E-23
 -1.1390001E-03    4.3982738E-23
 -1.1385001E-03    3.6842982E-23
 -1.1380001E-03    2.7729505E-23
 -1.1375000E-03    1.5470400E-23
 -1.1370000E-03    4.4448723E-24
 -1.1365000E-03   -7.3208035E-24
 -1.1360000E-03   -1.7112750E-23
 -1.1355000E-03   -1.5062348E-23
 -1.1350000E-03   -8.0776296E-24
 -1.1345000E-03    1.2723172E-23
 -1.1340000E-03    3.5497712E-23
 -1.1335000E-03    6.6167154E-23
 -1.1330000E-03    9.4862878E-23
 -1.1325000E-03    1.5316446E-22
 -1.1320000E-03    2.0751861E-22
 -1.1315000E-03    1.6417336E-22
 -1.1310000E-03    1.1194637E-22
 -1.1305000E-03    2.4192308E-23
 -1.1300000E-03   -7.1456662E-23
 -1.1295000E-03   -9.6051565E-23
 -1.1290000E-03   -1.8380571E-22
 -1.1285000E-03   -3.4261403E-22
 -1.1280000E-03   -7.6195411E-22
 -1.1275000E-03   -9.4444720E-22
 -1.1270000E-03   -8.6640868E-22
 -1.1265000E-03   -5.2783857E-22
 -1.1260000E-03    3.9683692E-23
 -1.1255000E-03    7.6510390E-22
 -1.1250000E-03    1.8176692E-21
 -1.1244999E-03    3.8176227E-21
 -1.1239999E-03    5.7228374E-21
 -1.1235001E-03    6.9648818E-21
 -1.1230001E-03    7.1647986E-21
 -1.1225000E-03    6.0699527E-21
 -1.1220000E-03    4.6593105E-21
 -1.1215000E-03    2.9960318E-21
 -1.1210000E-03    5.7484256E-22
 -1.1205000E-03   -1.7200282E-21
 -1.1200000E-03   -2.2464410E-21
 -1.1195000E-03   -2.2675805E-21
 -1.1190000E-03   -2.3203000E-21
 -1.1185000E-03   -8.8877891E-22
 -1.1180000E-03    7.3221898E-22
 -1.1175000E-03    6.2690880E-21
 -1.1170000E-03    1.4584962E-20
 -1.1165000E-03    2.5932476E-20
 -1.1160000E-03    3.8164220E-20
 -1.1155000E-03    5.3174970E-20
 -1.1150000E-03    6.8438352E-20
 -1.1145000E-03    8.2312232E-20
 -1.1140000E-03    9.2522879E-20
 -1.1135000E-03    1.0330196E-19
 -1.1130000E-03    1.1534422E-19
 -1.1125000E-03    1.2435486E-19
 -1.1120000E-03    1.1997574E-19
 -1.1115000E-03    1.0650169E-19
 -1.1110000E-03    7.5343061E-20
 -1.1105000E-03    3.4584231E-20
 -1.1100000E-03   -1.8806439E-20
 -1.1094999E-03   -9.7460791E-20
 -1.1089999E-03   -1.9733663E-19
 -1.1084999E-03   -2.8811755E-19
 -1.1080001E-03   -3.5464531E-19
 -1.1075001E-03   -3.8125649E-19
 -1.1070000E-03   -4.1443620E-19
 -1.1065000E-03   -4.3195245E-19
 -1.1060000E-03   -4.4340541E-19
 -1.1055000E-03   -4.0635217E-19
 -1.1050000E-03   -3.4201414E-19
 -1.1045000E-03   -2.5140195E-19
 -1.1040000E-03   -1.8302183E-19
 -1.1035000E-03   -6.6135442E-20
 -1.1030000E-03    8.5109537E-20
 -1.1025000E-03    2.2928074E-19
 -1.1020000E-03    3.6233597E-19
 -1.1015000E-03    4.6659066E-19
 -1.1010000E-03    6.1733068E-19
 -1.1005000E-03    8.2466143E-19
 -1.1000000E-03    9.3093750E-19
 -1.0995000E-03    9.3211675E-19
 -1.0990000E-03    8.6053667E-19
 -1.0985000E-03    7.4045031E-19
 -1.0980000E-03    6.0015293E-19
 -1.0975000E-03    4.6793979E-19
 -1.0970000E-03    4.3678119E-19
 -1.0965000E-03    5.0768768E-19
 -1.0960000E-03    6.4175319E-19
 -1.0955000E-03    8.5666231E-19
 -1.0950000E-03    1.1726259E-18
 -1.0945000E-03    1.7634583E-18
 -1.0939999E-03    2.3219533E-18
 -1.0934999E-03    2.9612921E-18
 -1.0930001E-03    3.6653064E-18
 -1.0925001E-03    4.2884769E-18
 -1.0920000E-03    4.4993447E-18
 -1.0915000E-03    4.0230409E-18
 -1.0910000E-03    3.1788977E-18
 -1.0905000E-03    1.6586988E-18
 -1.0900000E-03   -8.7862575E-20
 -1.0895000E-03   -2.3356551E-18
 -1.0890000E-03   -4.5996168E-18
 -1.0885000E-03   -6.8959161E-18
 -1.0880000E-03   -9.2568906E-18
 -1.0875000E-03   -1.0971116E-17
 -1.0870000E-03   -1.2458979E-17
 -1.0865000E-03   -1.4108530E-17
 -1.0860000E-03   -1.5467045E-17
 -1.0855000E-03   -1.6502187E-17
 -1.0850000E-03   -1.6348924E-17
 -1.0845000E-03   -1.5581249E-17
 -1.0840000E-03   -1.3681762E-17
 -1.0835000E-03   -9.4216352E-18
 -1.0830000E-03   -3.2859338E-18
 -1.0825000E-03    3.4318421E-18
 -1.0820000E-03    1.0149619E-17
 -1.0815000E-03    1.6673372E-17
 -1.0810000E-03    2.3197126E-17
 -1.0805000E-03    2.9785553E-17
 -1.0800000E-03    3.7408783E-17
 -1.0795000E-03    4.4555038E-17
 -1.0790000E-03    4.9049617E-17
 -1.0784999E-03    5.1151224E-17
 -1.0779999E-03    5.0536484E-17
 -1.0775001E-03    4.7981498E-17
 -1.0770001E-03    4.2968863E-17
 -1.0765000E-03    3.4205080E-17
 -1.0760000E-03    2.0525991E-17
 -1.0755000E-03    3.2250990E-18
 -1.0750000E-03   -1.6145398E-17
 -1.0745000E-03   -3.4610445E-17
 -1.0740000E-03   -5.0553170E-17
 -1.0735000E-03   -6.2954950E-17
 -1.0730000E-03   -7.1346889E-17
 -1.0725000E-03   -7.1331080E-17
 -1.0720000E-03   -5.9415060E-17
 -1.0715000E-03   -4.1290249E-17
 -1.0710000E-03   -2.2389337E-17
 -1.0705000E-03   -2.9710241E-18
 -1.0700000E-03    9.7210911E-18
 -1.0695000E-03    2.7328512E-17
 -1.0690000E-03    4.8557739E-17
 -1.0685000E-03    6.3966221E-17
 -1.0680000E-03    7.7887168E-17
 -1.0675000E-03    9.1096693E-17
 -1.0670000E-03    9.0336434E-17
 -1.0665000E-03    9.6043683E-17
 -1.0660000E-03    9.6576943E-17
 -1.0655000E-03    1.0952783E-16
 -1.0650000E-03    1.2920491E-16
 -1.0645000E-03    1.5612562E-16
 -1.0640000E-03    1.8666810E-16
 -1.0634999E-03    1.8513180E-16
 -1.0629999E-03    1.5876029E-16
 -1.0625001E-03    1.0729485E-16
 -1.0620001E-03    4.2247638E-17
 -1.0615001E-03   -3.2242147E-17
 -1.0610000E-03   -1.0285147E-16
 -1.0605000E-03   -1.6000841E-16
 -1.0600000E-03   -1.7732559E-16
 -1.0595000E-03   -1.9102099E-16
 -1.0590000E-03   -1.7677682E-16
 -1.0585000E-03   -1.0975786E-16
 -1.0580000E-03   -2.3816825E-18
 -1.0575000E-03    1.0913371E-16
 -1.0570000E-03    2.2168394E-16
 -1.0565000E-03    3.5389542E-16
 -1.0560000E-03    4.8455478E-16
 -1.0555000E-03    5.8830938E-16
 -1.0550000E-03    6.6645278E-16
 -1.0545000E-03    7.2881552E-16
 -1.0540000E-03    7.2132929E-16
 -1.0535000E-03    6.1036315E-16
 -1.0530000E-03    5.4437045E-16
 -1.0525000E-03    5.6607704E-16
 -1.0520000E-03    5.8338579E-16
 -1.0515000E-03    6.1104253E-16
 -1.0510000E-03    6.6249962E-16
 -1.0505000E-03    6.3634663E-16
 -1.0500000E-03    5.5845353E-16
 -1.0495000E-03    4.8262995E-16
 -1.0490000E-03    4.1094537E-16
 -1.0485000E-03    1.7783174E-16
 -1.0479999E-03    6.4754895E-17
 -1.0474999E-03   -1.2282774E-16
 -1.0470001E-03   -2.4418321E-16
 -1.0465001E-03   -4.3176583E-16
 -1.0460000E-03   -4.9724201E-16
 -1.0455000E-03   -5.2443060E-16
 -1.0450000E-03   -3.6535517E-16
 -1.0445000E-03   -2.3111479E-16
 -1.0440000E-03    1.7631287E-16
 -1.0435000E-03    5.0095662E-16
 -1.0430000E-03    9.4149819E-16
 -1.0425000E-03    1.6303920E-15
 -1.0420000E-03    2.5841950E-15
 -1.0415000E-03    3.4717706E-15
 -1.0410000E-03    4.3262331E-15
 -1.0405000E-03    5.0813549E-15
 -1.0400000E-03    5.7123004E-15
 -1.0395000E-03    6.2894361E-15
 -1.0390000E-03    6.0677057E-15
 -1.0385000E-03    4.6373288E-15
 -1.0380000E-03    2.6109064E-15
 -1.0375000E-03    1.5400700E-16
 -1.0370000E-03   -4.0248007E-15
 -1.0365000E-03   -8.5678585E-15
 -1.0360000E-03   -1.3905643E-14
 -1.0355000E-03   -2.0203725E-14
 -1.0350000E-03   -2.6270010E-14
 -1.0345000E-03   -3.1011753E-14
 -1.0340000E-03   -3.5058108E-14
 -1.0335000E-03   -3.7150763E-14
 -1.0329999E-03   -3.7341458E-14
 -1.0324999E-03   -3.3757197E-14
 -1.0319999E-03   -2.7424508E-14
 -1.0315001E-03   -1.9237457E-14
 -1.0310001E-03   -8.0701801E-15
 -1.0305000E-03    5.6137329E-15
 -1.0300000E-03    2.2476555E-14
 -1.0295000E-03    4.0266564E-14
 -1.0290000E-03    5.5804851E-14
 -1.0285000E-03    6.8760285E-14
 -1.0280000E-03    7.6682448E-14
 -1.0275000E-03    8.0233617E-14
 -1.0270000E-03    7.7029617E-14
 -1.0265000E-03    6.8792343E-14
 -1.0260000E-03    5.6713897E-14
 -1.0255000E-03    4.2383719E-14
 -1.0250000E-03    2.3947456E-14
 -1.0245000E-03    1.0077383E-15
 -1.0240000E-03   -2.4845982E-14
 -1.0235000E-03   -5.3613709E-14
 -1.0230000E-03   -8.3176169E-14
 -1.0225000E-03   -1.0836765E-13
 -1.0220000E-03   -1.2653905E-13
 -1.0215000E-03   -1.4126665E-13
 -1.0210000E-03   -1.4596081E-13
 -1.0205000E-03   -1.3582009E-13
 -1.0200000E-03   -1.1852682E-13
 -1.0195000E-03   -9.2756471E-14
 -1.0190000E-03   -5.1091577E-14
 -1.0185000E-03   -4.1284924E-15
 -1.0180000E-03    4.5483691E-14
 -1.0174999E-03    9.4036243E-14
 -1.0169999E-03    1.3676081E-13
 -1.0165001E-03    1.6147158E-13
 -1.0160001E-03    1.7929474E-13
 -1.0155000E-03    1.9923719E-13
 -1.0150000E-03    1.9851675E-13
 -1.0145000E-03    1.7580888E-13
 -1.0140000E-03    1.5124664E-13
 -1.0135000E-03    1.2191604E-13
 -1.0130000E-03    8.4638168E-14
 -1.0125000E-03    3.9942828E-14
 -1.0120000E-03   -4.7525083E-15
 -1.0115000E-03   -5.7395129E-14
 -1.0110000E-03   -1.3017083E-13
 -1.0105000E-03   -2.1619201E-13
 -1.0100000E-03   -3.1016048E-13
 -1.0095000E-03   -4.0028777E-13
 -1.0090000E-03   -4.8922303E-13
 -1.0085000E-03   -5.5776033E-13
 -1.0080000E-03   -5.7013698E-13
 -1.0075000E-03   -5.1893548E-13
 -1.0070000E-03   -4.4336244E-13
 -1.0065000E-03   -3.2328469E-13
 -1.0060000E-03   -1.6188118E-13
 -1.0055000E-03    6.5219775E-14
 -1.0050000E-03    3.1457313E-13
 -1.0045000E-03    5.7558250E-13
 -1.0040000E-03    8.2440619E-13
 -1.0035000E-03    1.0613089E-12
 -1.0030000E-03    1.2396670E-12
 -1.0025000E-03    1.2951075E-12
 -1.0019999E-03    1.2403459E-12
 -1.0014999E-03    1.0722034E-12
 -1.0010001E-03    7.6948723E-13
 -1.0005001E-03    3.8411949E-13
 -1.0000000E-03   -7.5422775E-14
 -9.9950004E-04   -5.8158908E-13
 -9.9900004E-04   -1.0750400E-12
 -9.9850004E-04   -1.5112707E-12
 -9.9800003E-04   -1.8505449E-12
 -9.9750003E-04   -2.0531261E-12
 -9.9700002E-04   -2.1025905E-12
 -9.9650002E-04   -1.9872814E-12
 -9.9600002E-04   -1.6717013E-12
 -9.9550001E-04   -1.1834006E-12
 -9.9500001E-04   -5.3403533E-13
 -9.9450001E-04    1.8950457E-13
 -9.9400000E-04    9.3847575E-13
 -9.9350000E-04    1.7234747E-12
 -9.9299999E-04    2.4491344E-12
 -9.9249999E-04    3.1006196E-12
 -9.9199999E-04    3.6238894E-12
 -9.9149998E-04    3.9784127E-12
 -9.9099998E-04    4.1167703E-12
 -9.9049998E-04    3.9478334E-12
 -9.8999997E-04    3.5108090E-12
 -9.8949997E-04    2.8321876E-12
 -9.8899996E-04    1.9225658E-12
 -9.8849996E-04    8.1161320E-13
 -9.8799996E-04   -3.6079847E-13
 -9.8749995E-04   -1.5861923E-12
 -9.8699995E-04   -2.7257558E-12
 -9.8649994E-04   -3.7763104E-12
 -9.8600006E-04   -4.6239458E-12
 -9.8550005E-04   -5.1687903E-12
 -9.8500005E-04   -5.3670015E-12
 -9.8450005E-04   -5.1895719E-12
 -9.8400004E-04   -4.6041834E-12
 -9.8350004E-04   -3.6563990E-12
 -9.8300003E-04   -2.4447657E-12
 -9.8250003E-04   -9.6716363E-13
 -9.8200003E-04    7.0117333E-13
 -9.8150002E-04    2.3610332E-12
 -9.8100002E-04    3.8269804E-12
 -9.8050002E-04    5.0274893E-12
 -9.8000001E-04    5.8870608E-12
 -9.7950001E-04    6.3845023E-12
 -9.7900000E-04    6.5047139E-12
 -9.7850000E-04    6.2386884E-12
 -9.7800000E-04    5.5064234E-12
 -9.7749999E-04    4.4069952E-12
 -9.7699999E-04    2.9155014E-12
 -9.7649998E-04    1.1665158E-12
 -9.7599998E-04   -6.4392925E-13
 -9.7549998E-04   -2.5963658E-12
 -9.7499997E-04   -4.6420511E-12
 -9.7450003E-04   -6.3232228E-12
 -9.7400002E-04   -7.8247860E-12
 -9.7350002E-04   -8.8998479E-12
 -9.7300002E-04   -9.4525091E-12
 -9.7250001E-04   -9.5495278E-12
 -9.7200001E-04   -9.0870592E-12
 -9.7150001E-04   -8.1244430E-12
 -9.7100000E-04   -6.5218061E-12
 -9.7050000E-04   -4.4910759E-12
 -9.6999999E-04   -1.7652246E-12
 -9.6949999E-04    1.2064627E-12
 -9.6899999E-04    4.1908668E-12
 -9.6849998E-04    7.3426942E-12
 -9.6799998E-04    1.0118351E-11
 -9.6749997E-04    1.2644997E-11
 -9.6700003E-04    1.4629109E-11
 -9.6650003E-04    1.6138505E-11
 -9.6600002E-04    1.7046030E-11
 -9.6550002E-04    1.7029551E-11
 -9.6500001E-04    1.6241661E-11
 -9.6450001E-04    1.4538243E-11
 -9.6400001E-04    1.2394017E-11
 -9.6350000E-04    9.7157352E-12
 -9.6300000E-04    6.4355791E-12
 -9.6249999E-04    2.3500984E-12
 -9.6199999E-04   -1.7735304E-12
 -9.6149999E-04   -5.6047020E-12
 -9.6099998E-04   -9.1646092E-12
 -9.6049998E-04   -1.1817470E-11
 -9.5999998E-04   -1.3368312E-11
 -9.5949997E-04   -1.3918858E-11
 -9.5900003E-04   -1.3316522E-11
 -9.5850002E-04   -1.1561303E-11
 -9.5800002E-04   -8.7718791E-12
 -9.5750001E-04   -4.7956630E-12
 -9.5700001E-04   -7.3462619E-14
 -9.5650001E-04    5.0895486E-12
 -9.5600000E-04    1.1706382E-11
 -9.5550000E-04    1.8306261E-11
 -9.5500000E-04    2.4287317E-11
 -9.5449999E-04    2.9810616E-11
 -9.5399999E-04    3.3418091E-11
 -9.5349998E-04    3.4550265E-11
 -9.5299998E-04    3.2732411E-11
 -9.5249998E-04    2.8574884E-11
 -9.5199997E-04    2.1806418E-11
 -9.5150003E-04    1.2833905E-11
 -9.5100002E-04    1.5386700E-12
 -9.5050002E-04   -1.0417779E-11
 -9.5000002E-04   -2.2357276E-11
 -9.4950001E-04   -3.2864152E-11
 -9.4900001E-04   -4.1556935E-11
 -9.4850000E-04   -4.6621533E-11
 -9.4800000E-04   -4.8464843E-11
 -9.4750000E-04   -4.5154089E-11
 -9.4699999E-04   -3.8282964E-11
 -9.4649999E-04   -2.6902027E-11
 -9.4599999E-04   -1.1350369E-11
 -9.4549998E-04    7.5582188E-12
 -9.4499998E-04    2.7924871E-11
 -9.4449997E-04    5.0122576E-11
 -9.4400003E-04    7.2082930E-11
 -9.4350002E-04    9.1697254E-11
 -9.4300002E-04    1.0598798E-10
 -9.4250002E-04    1.1410740E-10
 -9.4200001E-04    1.1666586E-10
 -9.4150001E-04    1.1067943E-10
 -9.4100001E-04    9.7436621E-11
 -9.4050000E-04    7.8497216E-11
 -9.4000000E-04    5.4335921E-11
 -9.3949999E-04    2.6241263E-11
 -9.3899999E-04   -3.9557220E-12
 -9.3849999E-04   -3.4525705E-11
 -9.3799998E-04   -6.2366071E-11
 -9.3749998E-04   -8.7035504E-11
 -9.3699998E-04   -1.0309223E-10
 -9.3649997E-04   -1.1151960E-10
 -9.3600003E-04   -1.1180898E-10
 -9.3550002E-04   -1.0504544E-10
 -9.3500002E-04   -8.8109409E-11
 -9.3450001E-04   -6.2899741E-11
 -9.3400001E-04   -3.0772777E-11
 -9.3350001E-04    5.9657331E-12
 -9.3300000E-04    4.4738751E-11
 -9.3250000E-04    8.3410057E-11
 -9.3200000E-04    1.1941957E-10
 -9.3149999E-04    1.4898918E-10
 -9.3099999E-04    1.7059036E-10
 -9.3049998E-04    1.8137479E-10
 -9.2999998E-04    1.7679876E-10
 -9.2949998E-04    1.5818470E-10
 -9.2899997E-04    1.2722801E-10
 -9.2850003E-04    8.6980437E-11
 -9.2800002E-04    3.5882200E-11
 -9.2750002E-04   -2.0844831E-11
 -9.2700002E-04   -7.9572467E-11
 -9.2650001E-04   -1.3711333E-10
 -9.2600001E-04   -1.9072086E-10
 -9.2550000E-04   -2.3548255E-10
 -9.2500000E-04   -2.6822380E-10
 -9.2450000E-04   -2.8835115E-10
 -9.2399999E-04   -2.8843869E-10
 -9.2349999E-04   -2.6974104E-10
 -9.2299999E-04   -2.3341107E-10
 -9.2249998E-04   -1.7890622E-10
 -9.2199998E-04   -1.1263518E-10
 -9.2149997E-04   -4.2193412E-11
 -9.2100003E-04    2.9570804E-11
 -9.2050002E-04    9.7706863E-11
 -9.2000002E-04    1.5715712E-10
 -9.1950002E-04    2.0670617E-10
 -9.1900001E-04    2.4421778E-10
 -9.1850001E-04    2.6853911E-10
 -9.1800001E-04    2.7743216E-10
 -9.1750000E-04    2.7052394E-10
 -9.1700000E-04    2.4700067E-10
 -9.1649999E-04    2.0726922E-10
 -9.1599999E-04    1.5575462E-10
 -9.1549999E-04    9.6373277E-11
 -9.1499998E-04    3.7347962E-11
 -9.1449998E-04   -2.0185409E-11
 -9.1399997E-04   -7.3615898E-11
 -9.1349997E-04   -1.1843369E-10
 -9.1300003E-04   -1.5216350E-10
 -9.1250002E-04   -1.7209266E-10
 -9.1200002E-04   -1.7808553E-10
 -9.1150001E-04   -1.7129498E-10
 -9.1100001E-04   -1.4836408E-10
 -9.1050001E-04   -1.1028042E-10
 -9.1000000E-04   -5.6853251E-11
 -9.0950000E-04    5.6952698E-12
 -9.0899999E-04    7.3363954E-11
 -9.0849999E-04    1.3577686E-10
 -9.0799999E-04    1.9432424E-10
 -9.0749998E-04    2.3944396E-10
 -9.0699998E-04    2.6838945E-10
 -9.0649998E-04    2.7800723E-10
 -9.0599997E-04    2.6546595E-10
 -9.0550003E-04    2.3150948E-10
 -9.0500002E-04    1.8131094E-10
 -9.0450002E-04    1.1286975E-10
 -9.0400001E-04    3.5002036E-11
 -9.0350001E-04   -4.9240435E-11
 -9.0300001E-04   -1.3348291E-10
 -9.0250000E-04   -2.0517933E-10
 -9.0200000E-04   -2.6399061E-10
 -9.0150000E-04   -3.0964550E-10
 -9.0099999E-04   -3.3868533E-10
 -9.0049999E-04   -3.4900782E-10
 -8.9999998E-04   -3.3549705E-10
 -8.9949998E-04   -3.0330283E-10
 -8.9899998E-04   -2.5551078E-10
 -8.9849997E-04   -2.0107277E-10
 -8.9800003E-04   -1.3985310E-10
 -8.9750002E-04   -7.6598956E-11
 -8.9700002E-04   -1.8905771E-11
 -8.9650002E-04    3.6346041E-11
 -8.9600001E-04    9.0648475E-11
 -8.9550001E-04    1.4142448E-10
 -8.9500000E-04    1.7633149E-10
 -8.9450000E-04    1.9550510E-10
 -8.9400000E-04    2.0260740E-10
 -8.9349999E-04    1.9845221E-10
 -8.9299999E-04    1.7991994E-10
 -8.9249999E-04    1.5040139E-10
 -8.9199998E-04    1.1138852E-10
 -8.9149998E-04    6.0439917E-11
 -8.9099997E-04   -5.1570844E-12
 -8.9050003E-04   -7.7264514E-11
 -8.9000002E-04   -1.4801564E-10
 -8.8950002E-04   -2.3884056E-10
 -8.8900002E-04   -3.3956676E-10
 -8.8850001E-04   -4.4938048E-10
 -8.8800001E-04   -5.5339600E-10
 -8.8750001E-04   -6.3645622E-10
 -8.8700000E-04   -6.8832090E-10
 -8.8650000E-04   -7.0356465E-10
 -8.8599999E-04   -6.7215061E-10
 -8.8549999E-04   -5.8919597E-10
 -8.8499999E-04   -4.6500875E-10
 -8.8449998E-04   -3.1233857E-10
 -8.8399998E-04   -1.2358986E-10
 -8.8349998E-04    8.1977508E-11
 -8.8299997E-04    2.9676805E-10
 -8.8250003E-04    5.1562776E-10
 -8.8200002E-04    7.2228057E-10
 -8.8150002E-04    8.9702579E-10
 -8.8100001E-04    1.0427457E-09
 -8.8050001E-04    1.1222765E-09
 -8.8000001E-04    1.1369747E-09
 -8.7950000E-04    1.0616125E-09
 -8.7900000E-04    9.0487035E-10
 -8.7850000E-04    6.5806771E-10
 -8.7799999E-04    3.2879988E-10
 -8.7749999E-04   -5.4450121E-11
 -8.7699998E-04   -4.9466631E-10
 -8.7649998E-04   -9.3054237E-10
 -8.7599998E-04   -1.3567887E-09
 -8.7549997E-04   -1.7012652E-09
 -8.7500003E-04   -1.9655828E-09
 -8.7450002E-04   -2.1308879E-09
 -8.7400002E-04   -2.1681554E-09
 -8.7350002E-04   -2.0944750E-09
 -8.7300001E-04   -1.8873314E-09
 -8.7250001E-04   -1.5784627E-09
 -8.7200000E-04   -1.1819750E-09
 -8.7150000E-04   -7.1414380E-10
 -8.7100000E-04   -2.0969151E-10
 -8.7049999E-04    2.8892871E-10
 -8.6999999E-04    7.7296847E-10
 -8.6949999E-04    1.2050101E-09
 -8.6899998E-04    1.5563500E-09
 -8.6849998E-04    1.7838570E-09
 -8.6799997E-04    1.8722044E-09
 -8.6750003E-04    1.8447207E-09
 -8.6700002E-04    1.7057468E-09
 -8.6650002E-04    1.4655902E-09
 -8.6600002E-04    1.1310326E-09
 -8.6550001E-04    7.1265355E-10
 -8.6500001E-04    2.7447186E-10
 -8.6450001E-04   -1.9449883E-10
 -8.6400000E-04   -6.7221800E-10
 -8.6350000E-04   -1.1443766E-09
 -8.6299999E-04   -1.5422081E-09
 -8.6249999E-04   -1.8446897E-09
 -8.6199999E-04   -2.0899340E-09
 -8.6149998E-04   -2.2453892E-09
 -8.6099998E-04   -2.3186508E-09
 -8.6049997E-04   -2.2825917E-09
 -8.5999997E-04   -2.1252764E-09
 -8.5950003E-04   -1.8229690E-09
 -8.5900002E-04   -1.3804166E-09
 -8.5850002E-04   -8.5058394E-10
 -8.5800001E-04   -2.4991653E-10
 -8.5750001E-04    3.5361561E-10
 -8.5700001E-04    9.5860619E-10
 -8.5650000E-04    1.5174140E-09
 -8.5600000E-04    1.9395037E-09
 -8.5549999E-04    2.1638400E-09
 -8.5499999E-04    2.1953570E-09
 -8.5449999E-04    2.0312061E-09
 -8.5399998E-04    1.6962247E-09
 -8.5349998E-04    1.2081134E-09
 -8.5299998E-04    6.0952871E-10
 -8.5249997E-04   -4.8463587E-11
 -8.5200003E-04   -7.1066086E-10
 -8.5150002E-04   -1.3504451E-09
 -8.5100002E-04   -1.9004742E-09
 -8.5050002E-04   -2.2827933E-09
 -8.5000001E-04   -2.4455222E-09
 -8.4950001E-04   -2.3942222E-09
 -8.4900000E-04   -2.0551085E-09
 -8.4850000E-04   -1.5342465E-09
 -8.4800000E-04   -8.4140145E-10
 -8.4749999E-04    3.5904894E-11
 -8.4699999E-04    1.0016442E-09
 -8.4649998E-04    1.9809470E-09
 -8.4599998E-04    2.9260705E-09
 -8.4549998E-04    3.7347472E-09
 -8.4499997E-04    4.3532666E-09
 -8.4450003E-04    4.7534172E-09
 -8.4400002E-04    4.8616853E-09
 -8.4350002E-04    4.7187605E-09
 -8.4300002E-04    4.3192188E-09
 -8.4250001E-04    3.6918124E-09
 -8.4200001E-04    2.9190077E-09
 -8.4150000E-04    1.9389554E-09
 -8.4100000E-04    8.4063051E-10
 -8.4050000E-04   -2.9024680E-10
 -8.3999999E-04   -1.4081036E-09
 -8.3949999E-04   -2.4266775E-09
 -8.3899999E-04   -3.2673011E-09
 -8.3849998E-04   -3.8407273E-09
 -8.3799998E-04   -4.0775125E-09
 -8.3749997E-04   -3.9480876E-09
 -8.3700003E-04   -3.4475707E-09
 -8.3650002E-04   -2.5998323E-09
 -8.3600002E-04   -1.3983628E-09
 -8.3550002E-04    6.5692958E-11
 -8.3500001E-04    1.6729775E-09
 -8.3450001E-04    3.3084744E-09
 -8.3400001E-04    4.8549955E-09
 -8.3350000E-04    6.1812488E-09
 -8.3300000E-04    7.1841524E-09
 -8.3249999E-04    7.8127096E-09
 -8.3199999E-04    8.0592297E-09
 -8.3149999E-04    7.8456823E-09
 -8.3099998E-04    7.0863471E-09
 -8.3049998E-04    5.8105205E-09
 -8.2999998E-04    4.1896429E-09
 -8.2949997E-04    2.2953293E-09
 -8.2900003E-04    2.0787354E-10
 -8.2850002E-04   -1.9490267E-09
 -8.2800002E-04   -3.9561883E-09
 -8.2750001E-04   -5.7094449E-09
 -8.2700001E-04   -7.0482065E-09
 -8.2650001E-04   -7.8813285E-09
 -8.2600000E-04   -8.1355678E-09
 -8.2550000E-04   -7.7884099E-09
 -8.2500000E-04   -6.8564021E-09
 -8.2449999E-04   -5.4122427E-09
 -8.2399999E-04   -3.5123562E-09
 -8.2349998E-04   -1.3520536E-09
 -8.2299998E-04    9.5581809E-10
 -8.2249998E-04    3.2463290E-09
 -8.2199997E-04    5.3458682E-09
 -8.2150003E-04    7.1025270E-09
 -8.2100002E-04    8.3557161E-09
 -8.2050002E-04    9.0772234E-09
 -8.2000002E-04    9.2269010E-09
 -8.1950001E-04    8.8210266E-09
 -8.1900001E-04    7.8639388E-09
 -8.1850000E-04    6.4945276E-09
 -8.1800000E-04    4.7930859E-09
 -8.1750000E-04    2.8073575E-09
 -8.1699999E-04    6.1329619E-10
 -8.1649999E-04   -1.6762512E-09
 -8.1599999E-04   -3.9223966E-09
 -8.1549998E-04   -6.0730567E-09
 -8.1499998E-04   -7.8830062E-09
 -8.1449997E-04   -9.3218651E-09
 -8.1400003E-04   -1.0297401E-08
 -8.1350002E-04   -1.0786287E-08
 -8.1300002E-04   -1.0790418E-08
 -8.1250002E-04   -1.0355101E-08
 -8.1200001E-04   -9.4922665E-09
 -8.1150001E-04   -8.3386356E-09
 -8.1100001E-04   -6.8421238E-09
 -8.1050000E-04   -5.1850222E-09
 -8.1000000E-04   -3.3586498E-09
 -8.0949999E-04   -1.4454713E-09
 -8.0899999E-04    5.3715232E-10
 -8.0849999E-04    2.5436486E-09
 -8.0799998E-04    4.4720214E-09
 -8.0749998E-04    6.2691026E-09
 -8.0699997E-04    7.8158058E-09
 -8.0649997E-04    8.9859915E-09
 -8.0600003E-04    9.7091313E-09
 -8.0550002E-04    9.9331414E-09
 -8.0500002E-04    9.6797219E-09
 -8.0450001E-04    9.1181445E-09
 -8.0400001E-04    8.1225400E-09
 -8.0350001E-04    6.7276309E-09
 -8.0300000E-04    5.1547695E-09
 -8.0250000E-04    3.5428442E-09
 -8.0200000E-04    2.0698063E-09
 -8.0149999E-04    7.8773821E-10
 -8.0099999E-04   -2.4639396E-10
 -8.0049998E-04   -9.6585839E-10
 -7.9999998E-04   -1.2643182E-09
 -7.9949998E-04   -1.0940301E-09
 -7.9899997E-04   -4.8971555E-10
 -7.9850003E-04    4.2709822E-10
 -7.9800002E-04    1.4524193E-09
 -7.9750002E-04    2.6079492E-09
 -7.9700002E-04    3.6419532E-09
 -7.9650001E-04    4.5891531E-09
 -7.9600001E-04    5.2629185E-09
 -7.9550000E-04    5.7240133E-09
 -7.9500000E-04    5.8313780E-09
 -7.9450000E-04    5.6598837E-09
 -7.9399999E-04    5.0090625E-09
 -7.9349999E-04    3.8970898E-09
 -7.9299998E-04    2.3706221E-09
 -7.9249998E-04    4.3182957E-10
 -7.9199998E-04   -1.8107820E-09
 -7.9149997E-04   -4.1358601E-09
 -7.9100003E-04   -6.3654539E-09
 -7.9050002E-04   -8.5559879E-09
 -7.9000002E-04   -1.0685762E-08
 -7.8950002E-04   -1.2442277E-08
 -7.8900001E-04   -1.3747406E-08
 -7.8850001E-04   -1.4175805E-08
 -7.8800000E-04   -1.3970529E-08
 -7.8750000E-04   -1.3129405E-08
 -7.8700000E-04   -1.1866192E-08
 -7.8649999E-04   -1.0244636E-08
 -7.8599999E-04   -8.1630125E-09
 -7.8549999E-04   -5.6994440E-09
 -7.8499998E-04   -3.1447278E-09
 -7.8449998E-04   -6.8549472E-10
 -7.8399997E-04    1.3917988E-09
 -7.8350003E-04    3.2303811E-09
 -7.8300002E-04    4.6740025E-09
 -7.8250002E-04    5.4752678E-09
 -7.8200002E-04    5.6862595E-09
 -7.8150001E-04    5.2852758E-09
 -7.8100001E-04    4.4068642E-09
 -7.8050001E-04    2.9642191E-09
 -7.8000000E-04    1.1157588E-09
 -7.7950000E-04   -9.1607916E-10
 -7.7899999E-04   -3.0572949E-09
 -7.7849999E-04   -5.1605356E-09
 -7.7799999E-04   -6.7516277E-09
 -7.7749998E-04   -7.7654665E-09
 -7.7699998E-04   -8.0675040E-09
 -7.7649998E-04   -7.8921145E-09
 -7.7599997E-04   -7.0570074E-09
 -7.7550003E-04   -5.5621800E-09
 -7.7500002E-04   -3.2774248E-09
 -7.7450002E-04   -3.4162934E-10
 -7.7400001E-04    3.0542353E-09
 -7.7350001E-04    6.9492327E-09
 -7.7300001E-04    1.1152391E-08
 -7.7250000E-04    1.5346870E-08
 -7.7200000E-04    1.9264659E-08
 -7.7150000E-04    2.2603027E-08
 -7.7099999E-04    2.5351119E-08
 -7.7049999E-04    2.7209460E-08
 -7.6999998E-04    2.8138984E-08
 -7.6949998E-04    2.8026847E-08
 -7.6899998E-04    2.6682073E-08
 -7.6849997E-04    2.4139384E-08
 -7.6800003E-04    2.0303297E-08
 -7.6750002E-04    1.5251933E-08
 -7.6700002E-04    9.3064711E-09
 -7.6650002E-04    2.6492044E-09
 -7.6600001E-04   -4.5332369E-09
 -7.6550001E-04   -1.1845889E-08
 -7.6500000E-04   -1.9004460E-08
 -7.6450000E-04   -2.5680182E-08
 -7.6400000E-04   -3.1184030E-08
 -7.6349999E-04   -3.5268616E-08
 -7.6299999E-04   -3.7686540E-08
 -7.6249999E-04   -3.8342318E-08
 -7.6199998E-04   -3.7261991E-08
 -7.6149998E-04   -3.4289304E-08
 -7.6099997E-04   -2.9632597E-08
 -7.6050003E-04   -2.3543601E-08
 -7.6000002E-04   -1.6300095E-08
 -7.5950002E-04   -8.3534646E-09
 -7.5900002E-04    1.2702198E-10
 -7.5850001E-04    8.6020862E-09
 -7.5800001E-04    1.6683272E-08
 -7.5750001E-04    2.4191547E-08
 -7.5700000E-04    3.0658157E-08
 -7.5650000E-04    3.5631725E-08
 -7.5599999E-04    3.8574047E-08
 -7.5549999E-04    3.9849713E-08
 -7.5499999E-04    3.9423991E-08
 -7.5449998E-04    3.7218765E-08
 -7.5399998E-04    3.3468407E-08
 -7.5349997E-04    2.8494089E-08
 -7.5299997E-04    2.2608317E-08
 -7.5250003E-04    1.6262476E-08
 -7.5200002E-04    9.8102966E-09
 -7.5150002E-04    3.6727839E-09
 -7.5100001E-04   -1.9395612E-09
 -7.5050001E-04   -6.7359398E-09
 -7.5000001E-04   -1.0516700E-08
 -7.4950000E-04   -1.3142955E-08
 -7.4900000E-04   -1.4553940E-08
 -7.4850000E-04   -1.4680211E-08
 -7.4799999E-04   -1.4042598E-08
 -7.4749999E-04   -1.2311241E-08
 -7.4699998E-04   -1.0059054E-08
 -7.4649998E-04   -7.5638118E-09
 -7.4599998E-04   -4.7734314E-09