 -1.2000001E-03    1.0000000E-24
 -1.1995001E-03    1.0000000E-24
 -1.1990000E-03    1.0000000E-24
 -1.1985000E-03    1.0000000E-24
 -1.1980000E-03    1.0000000E-24
 -1.1975000E-03    1.0000000E-24
 -1.1970000E-03    1.0000000E-24
 -1.1965000E-03    1.0000000E-24
 -1.1960000E-03    1.0000001E-24
 -1.1955000E-03    1.0000001E-24
 -1.1950000E-03    1.0000001E-24
 -1.1945000E-03    1.0000001E-24
 -1.1940000E-03    1.0000001E-24
 -1.1935000E-03    1.0000001E-24
 -1.1930000E-03    1.0000001E-24
 -1.1925000E-03    1.0000001E-24
 -1.1920000E-03    1.0000001E-24
 -1.1915000E-03    1.0000001E-24
 -1.1910000E-03    1.0000001E-24
 -1.1905000E-03    1.0000001E-24
 -1.1900000E-03    1.0000001E-24
 -1.1895000E-03    1.0000001E-24
 -1.1890000E-03    1.0000001E-24
 -1.1885000E-03    1.0000001E-24
 -1.1880000E-03    1.0000001E-24
 -1.1875000E-03    1.0000001E-24
 -1.1870000E-03    1.0000002E-24
 -1.1865000E-03    1.0000002E-24
 -1.1860000E-03    1.0000002E-24
 -1.1854999E-03    1.0000002E-24
 -1.1849999E-03    1.0000002E-24
 -1.1845001E-03    1.0000002E-24
 -1.1840001E-03    1.0000002E-24
 -1.1835000E-03    1.0000002E-24
 -1.1830000E-03    1.0000002E-24
 -1.1825000E-03    1.0000002E-24
 -1.1820000E-03    1.0000002E-24
 -1.1815000E-03    1.0000001E-24
 -1.1810000E-03    1.0000001E-24
 -1.1805000E-03    1.0000001E-24
 -1.1800000E-03    1.0000001E-24
 -1.1795000E-03    1.0000001E-24
 -1.1790000E-03    1.0000001E-24
 -1.1785000E-03    1.0000001E-24
 -1.1780000E-03    1.0000001E-24
 -1.1775000E-03    1.0000001E-24
 -1.1770000E-03    1.0000001E-24
 -1.1765000E-03    1.0000001E-24
 -1.1760000E-03    1.0000001E-24
 -1.1755000E-03    1.0000001E-24
 -1.1750000E-03    1.0000001E-24
 -1.1745000E-03    1.0000001E-24
 -1.1740000E-03    1.0000001E-24
 -1.1735000E-03    1.0000001E-24
 -1.1730000E-03    1.0000001E-24
 -1.1725000E-03    1.0000001E-24
 -1.1720000E-03    1.0000001E-24
 -1.1715000E-03    1.0000001E-24
 -1.1710000E-03    1.0000001E-24
 -1.1704999E-03    1.0000001E-24
 -1.1699999E-03    1.0000001E-24
 -1.1695001E-03    1.0000001E-24
 -1.1690001E-03    1.0000001E-24
 -1.1685000E-03    1.0000001E-24
 -1.1680000E-03    1.0000001E-24
 -1.1675000E-03    1.0000001E-24
 -1.1670000E-03    1.0000001E-24
 -1.1665000E-03    1.0000001E-24
 -1.1660000E-03    1.0000001E-24
 -1.1655000E-03    1.0000001E-24
 -1.1650000E-03    1.0000001E-24
 -1.1645000E-03    1.0000001E-24
 -1.1640000E-03    1.0000001E-24
 -1.1635000E-03    1.0000001E-24
 -1.1630000E-03    1.0000001E-24
 -1.1625000E-03    1.0000001E-24
 -1.1620000E-03    1.0000001E-24
 -1.1615000E-03    1.0000001E-24
 -1.1610000E-03    1.0000002E-24
 -1.1605000E-03    1.0000003E-24
 -1.1600000E-03    1.0000003E-24
 -1.1595000E-03    1.0000003E-24
 -1.1590000E-03    1.0000003E-24
 -1.1585000E-03    1.0000003E-24
 -1.1580000E-03    1.0000003E-24
 -1.1575000E-03    1.0000003E-24
 -1.1570000E-03    1.0000003E-24
 -1.1565000E-03    1.0000003E-24
 -1.1560000E-03    1.0000003E-24
 -1.1555000E-03    1.0000003E-24
 -1.1549999E-03    1.0000003E-24
 -1.1544999E-03    1.0000003E-24
 -1.1540001E-03    1.0000002E-24
 -1.1535001E-03    1.0000001E-24
 -1.1530000E-03    1.0000000E-24
 -1.1525000E-03    1.0000000E-24
 -1.1520000E-03    1.0000000E-24
 -1.1515000E-03    1.0000000E-24
 -1.1510000E-03    1.0000000E-24
 -1.1505000E-03    1.0000000E-24
 -1.1500000E-03    1.0000000E-24
 -1.1495000E-03    1.0000000E-24
 -1.1490000E-03    1.0000000E-24
 -1.1485000E-03    1.0000000E-24
 -1.1480000E-03    1.0000000E-24
 -1.1475000E-03    1.0000000E-24
 -1.1470000E-03    1.0000000E-24
 -1.1465000E-03    1.0000000E-24
 -1.1460000E-03    1.0000000E-24
 -1.1455000E-03    1.0000000E-24
 -1.1450000E-03    1.0000000E-24
 -1.1445000E-03    1.0000000E-24
 -1.1440000E-03    1.0000000E-24
 -1.1435000E-03    1.0000000E-24
 -1.1430000E-03    1.0000000E-24
 -1.1425000E-03    1.0000000E-24
 -1.1420000E-03    1.0000000E-24
 -1.1415000E-03    1.0000000E-24
 -1.1410000E-03    1.0000000E-24
 -1.1405000E-03    1.0000000E-24
 -1.1399999E-03    1.0000000E-24
 -1.1394999E-03    1.0000000E-24
 -1.1390001E-03    1.0000000E-24
 -1.1385001E-03    1.0000001E-24
 -1.1380001E-03    1.0000002E-24
 -1.1375000E-03    1.0000003E-24
 -1.1370000E-03    1.0000004E-24
 -1.1365000E-03    1.0000005E-24
 -1.1360000E-03    1.0000005E-24
 -1.1355000E-03    1.0000005E-24
 -1.1350000E-03    1.0000005E-24
 -1.1345000E-03    1.0000005E-24
 -1.1340000E-03    1.0000005E-24
 -1.1335000E-03    1.0000005E-24
 -1.1330000E-03    1.0000004E-24
 -1.1325000E-03    1.0000003E-24
 -1.1320000E-03    1.0000002E-24
 -1.1315000E-03    1.0000001E-24
 -1.1310000E-03    1.0000000E-24
 -1.1305000E-03    1.0000000E-24
 -1.1300000E-03    1.0000000E-24
 -1.1295000E-03    1.0000000E-24
 -1.1290000E-03    1.0000000E-24
 -1.1285000E-03    1.0000000E-24
 -1.1280000E-03    1.0000001E-24
 -1.1275000E-03    1.0000002E-24
 -1.1270000E-03    1.0000003E-24
 -1.1265000E-03    1.0000004E-24
 -1.1260000E-03    1.0000006E-24
 -1.1255000E-03    1.0000008E-24
 -1.1250000E-03    1.0000010E-24
 -1.1244999E-03    1.0000012E-24
 -1.1239999E-03    1.0000014E-24
 -1.1235001E-03    1.0000016E-24
 -1.1230001E-03    1.0000017E-24
 -1.1225000E-03    1.0000016E-24
 -1.1220000E-03    1.0000012E-24
 -1.1215000E-03    1.0000005E-24
 -1.1210000E-03    9.9999923E-25
 -1.1205000E-03    9.9999736E-25
 -1.1200000E-03    9.9999469E-25
 -1.1195000E-03    9.9999124E-25
 -1.1190000E-03    9.9998690E-25
 -1.1185000E-03    9.9998188E-25
 -1.1180000E-03    9.9997655E-25
 -1.1175000E-03    9.9997142E-25
 -1.1170000E-03    9.9996738E-25
 -1.1165000E-03    9.9996561E-25
 -1.1160000E-03    9.9996758E-25
 -1.1155000E-03    9.9997527E-25
 -1.1150000E-03    9.9999075E-25
 -1.1145000E-03    1.0000162E-24
 -1.1140000E-03    1.0000537E-24
 -1.1135000E-03    1.0001047E-24
 -1.1130000E-03    1.0001700E-24
 -1.1125000E-03    1.0002484E-24
 -1.1120000E-03    1.0003368E-24
 -1.1115000E-03    1.0004288E-24
 -1.1110000E-03    1.0005144E-24
 -1.1105000E-03    1.0005792E-24
 -1.1100000E-03    1.0006044E-24
 -1.1094999E-03    1.0005663E-24
 -1.1089999E-03    1.0004375E-24
 -1.1084999E-03    1.0001885E-24
 -1.1080001E-03    9.9978979E-25
 -1.1075001E-03    9.9921638E-25
 -1.1070000E-03    9.9845247E-25
 -1.1065000E-03    9.9749815E-25
 -1.1060000E-03    9.9637668E-25
 -1.1055000E-03    9.9514271E-25
 -1.1050000E-03    9.9389069E-25
 -1.1045000E-03    9.9276133E-25
 -1.1040000E-03    9.9194644E-25
 -1.1035000E-03    9.9168927E-25
 -1.1030000E-03    9.9227904E-25
 -1.1025000E-03    9.9403761E-25
 -1.1020000E-03    9.9729561E-25
 -1.1015000E-03    1.0023586E-24
 -1.1010000E-03    1.0094595E-24
 -1.1005000E-03    1.0187005E-24
 -1.1000000E-03    1.0299833E-24
 -1.0995000E-03    1.0429348E-24
 -1.0990000E-03    1.0568308E-24
 -1.0985000E-03    1.0705297E-24
 -1.0980000E-03    1.0824234E-24
 -1.0975000E-03    1.0904231E-24
 -1.0970000E-03    1.0919929E-24
 -1.0965000E-03    1.0842463E-24
 -1.0960000E-03    1.0641227E-24
 -1.0955000E-03    1.0286535E-24
 -1.0950000E-03    9.7532623E-25
 -1.0945000E-03    9.0254257E-25
 -1.0939999E-03    8.1015857E-25
 -1.0934999E-03    7.0007712E-25
 -1.0930001E-03    5.7685040E-25
 -1.0925001E-03    4.4822845E-25
 -1.0920000E-03    3.2557396E-25
 -1.0915000E-03    2.2404754E-25
 -1.0910000E-03    1.6245676E-25
 -1.0905000E-03    1.6265957E-25
 -1.0900000E-03    2.4841957E-25
 -1.0895000E-03    4.4363319E-25
 -1.0890000E-03    7.6988648E-25
 -1.0885000E-03    1.2433565E-24
 -1.0880000E-03    1.8711453E-24
 -1.0875000E-03    2.6472296E-24
 -1.0870000E-03    3.5483102E-24
 -1.0865000E-03    4.5299643E-24
 -1.0860000E-03    5.5235985E-24
 -1.0855000E-03    6.4348082E-24
 -1.0850000E-03    7.1437950E-24
 -1.0845000E-03    7.5085193E-24
 -1.0840000E-03    7.3711905E-24
 -1.0835000E-03    6.5685978E-24
 -1.0830000E-03    4.9464987E-24
 -1.0825000E-03    2.3780090E-24
 -1.0820000E-03   -1.2145510E-24
 -1.0815000E-03   -5.8353856E-24
 -1.0810000E-03   -1.1390176E-23
 -1.0805000E-03   -1.7662499E-23
 -1.0800000E-03   -2.4294537E-23
 -1.0795000E-03   -3.0775420E-23
 -1.0790000E-03   -3.6440745E-23
 -1.0784999E-03   -4.0487017E-23
 -1.0779999E-03   -4.2004174E-23
 -1.0775001E-03   -4.0028901E-23
 -1.0770001E-03   -3.3619914E-23
 -1.0765000E-03   -2.1954797E-23
 -1.0760000E-03   -4.4456118E-24
 -1.0755000E-03    1.9132081E-23
 -1.0750000E-03    4.8505211E-23
 -1.0745000E-03    8.2775591E-23
 -1.0740000E-03    1.2031294E-22
 -1.0735000E-03    1.5868490E-22
 -1.0730000E-03    1.9464205E-22
 -1.0725000E-03    2.2417539E-22
 -1.0720000E-03    2.4266242E-22
 -1.0715000E-03    2.4511410E-22
 -1.0710000E-03    2.2652819E-22
 -1.0705000E-03    1.8234736E-22
 -1.0700000E-03    1.0900842E-22
 -1.0695000E-03    4.5574411E-24
 -1.0690000E-03   -1.3070804E-22
 -1.0685000E-03   -2.9362218E-22
 -1.0680000E-03   -4.7762385E-22
 -1.0675000E-03   -6.7239419E-22
 -1.0670000E-03   -8.6373731E-22
 -1.0665000E-03   -1.0337836E-21
 -1.0660000E-03   -1.1615846E-21
 -1.0655000E-03   -1.2241525E-21
 -1.0650000E-03   -1.1979686E-21
 -1.0645000E-03   -1.0609509E-21
 -1.0640000E-03   -7.9482131E-22
 -1.0634999E-03   -3.8776537E-22
 -1.0629999E-03    1.6278181E-22
 -1.0625001E-03    8.4744351E-22
 -1.0620001E-03    1.6425734E-21
 -1.0615001E-03    2.5085969E-21
 -1.0610000E-03    3.3893467E-21
 -1.0605000E-03    4.2127125E-21
 -1.0600000E-03    4.8928783E-21
 -1.0595000E-03    5.3343622E-21
 -1.0590000E-03    5.4379407E-21
 -1.0585000E-03    5.1084191E-21
 -1.0580000E-03    4.2639993E-21
 -1.0575000E-03    2.8468206E-21
 -1.0570000E-03    8.3401419E-22
 -1.0565000E-03   -1.7515842E-21
 -1.0560000E-03   -4.8321052E-21
 -1.0555000E-03   -8.2678730E-21
 -1.0550000E-03   -1.1854407E-20
 -1.0545000E-03   -1.5324406E-20
 -1.0540000E-03   -1.8355715E-20
 -1.0535000E-03   -2.0586036E-20
 -1.0530000E-03   -2.1634688E-20
 -1.0525000E-03   -2.1131169E-20
 -1.0520000E-03   -1.8749624E-20
 -1.0515000E-03   -1.4247574E-20
 -1.0510000E-03   -7.5064645E-21
 -1.0505000E-03    1.4290710E-21
 -1.0500000E-03    1.2317024E-20
 -1.0495000E-03    2.4693083E-20
 -1.0490000E-03    3.7859297E-20
 -1.0485000E-03    5.0890458E-20
 -1.0479999E-03    6.2661736E-20
 -1.0474999E-03    7.1899948E-20
 -1.0470001E-03    7.7259425E-20
 -1.0465001E-03    7.7421307E-20
 -1.0460000E-03    7.1212929E-20
 -1.0455000E-03    5.7741284E-20
 -1.0450000E-03    3.6532118E-20
 -1.0445000E-03    7.6635642E-21
 -1.0440000E-03   -2.8118435E-20
 -1.0435000E-03   -6.9317231E-20
 -1.0430000E-03   -1.1364946E-19
 -1.0425000E-03   -1.5806948E-19
 -1.0420000E-03   -1.9886539E-19
 -1.0415000E-03   -2.3183378E-19
 -1.0410000E-03   -2.5253535E-19
 -1.0405000E-03   -2.5662619E-19
 -1.0400000E-03   -2.4025262E-19
 -1.0395000E-03   -2.0048793E-19
 -1.0390000E-03   -1.3578254E-19
 -1.0385000E-03   -4.6390266E-20
 -1.0380000E-03    6.5271659E-20
 -1.0375000E-03    1.9437465E-19
 -1.0370000E-03    3.3358878E-19
 -1.0365000E-03    4.7319250E-19
 -1.0360000E-03    6.0141459E-19
 -1.0355000E-03    7.0502754E-19
 -1.0350000E-03    7.7019376E-19
 -1.0345000E-03    7.8354244E-19
 -1.0340000E-03    7.3343106E-19
 -1.0335000E-03    6.1131878E-19
 -1.0329999E-03    4.1315337E-19
 -1.0324999E-03    1.4065097E-19
 -1.0319999E-03   -1.9766665E-19
 -1.0315001E-03   -5.8582074E-19
 -1.0310001E-03   -1.0002492E-18
 -1.0305000E-03   -1.4103257E-18
 -1.0300000E-03   -1.7796127E-18
 -1.0295000E-03   -2.0678909E-18
 -1.0290000E-03   -2.2339419E-18
 -1.0285000E-03   -2.2389959E-18
 -1.0280000E-03   -2.0506721E-18
 -1.0275000E-03   -1.6471572E-18
 -1.0270000E-03   -1.0213024E-18
 -1.0265000E-03   -1.8424722E-19
 -1.0260000E-03    8.3185155E-19
 -1.0255000E-03    1.9724175E-18
 -1.0250000E-03    3.1607831E-18
 -1.0245000E-03    4.3005740E-18
 -1.0240000E-03    5.2803653E-18
 -1.0235000E-03    5.9806540E-18
 -1.0230000E-03    6.2829972E-18
 -1.0225000E-03    6.0809343E-18
 -1.0220000E-03    5.2920733E-18
 -1.0215000E-03    3.8704732E-18
 -1.0210000E-03    1.8182726E-18
 -1.0205000E-03   -8.0467246E-19
 -1.0200000E-03   -3.8744172E-18
 -1.0195000E-03   -7.2010920E-18
 -1.0190000E-03   -1.0532702E-17
 -1.0185000E-03   -1.3565400E-17
 -1.0180000E-03   -1.5960607E-17
 -1.0174999E-03   -1.7368870E-17
 -1.0169999E-03   -1.7459632E-17
 -1.0165001E-03   -1.5955437E-17
 -1.0160001E-03   -1.2668357E-17
 -1.0155000E-03   -7.5357254E-18
 -1.0150000E-03   -6.5179857E-19
 -1.0145000E-03    7.7084283E-18
 -1.0140000E-03    1.7077069E-17
 -1.0135000E-03    2.6796372E-17
 -1.0130000E-03    3.6039819E-17
 -1.0125000E-03    4.3853086E-17
 -1.0120000E-03    4.9215225E-17
 -1.0115000E-03    5.1118660E-17
 -1.0110000E-03    4.8664511E-17
 -1.0105000E-03    4.1167757E-17
 -1.0100000E-03    2.8264507E-17
 -1.0095000E-03    1.0012140E-17
 -1.0090000E-03   -1.3028469E-17
 -1.0085000E-03   -3.9739762E-17
 -1.0080000E-03   -6.8434227E-17
 -1.0075000E-03   -9.6890478E-17
 -1.0070000E-03   -1.2244553E-16
 -1.0065000E-03   -1.4214634E-16
 -1.0060000E-03   -1.5295898E-16
 -1.0055000E-03   -1.5202820E-16
 -1.0050000E-03   -1.3697402E-16
 -1.0045000E-03   -1.0620587E-16
 -1.0040000E-03   -5.9229553E-17
 -1.0035000E-03    3.0826856E-18
 -1.0030000E-03    7.8290455E-17
 -1.0025000E-03    1.6228438E-16
 -1.0019999E-03    2.4931544E-16
 -1.0014999E-03    3.3217797E-16
 -1.0010001E-03    4.0256098E-16
 -1.0005001E-03    4.5156962E-16
 -1.0000000E-03    4.7040425E-16
 -9.9950004E-04    4.5116665E-16
 -9.9900004E-04    3.8774789E-16
 -9.9850004E-04    2.7673278E-16
 -9.9800003E-04    1.1824444E-16
 -9.9750003E-04   -8.3359093E-17
 -9.9700002E-04   -3.1902707E-16
 -9.9650002E-04   -5.7488486E-16
 -9.9600002E-04   -8.3250490E-16
 -9.9550001E-04   -1.0696343E-15
 -9.9500001E-04   -1.2614028E-15
 -9.9450001E-04   -1.3819975E-15
 -9.9400000E-04   -1.4067452E-15
 -9.9350000E-04   -1.3144988E-15
 -9.9299999E-04   -1.0901720E-15
 -9.9249999E-04   -7.2722988E-16
 -9.9199999E-04   -2.2990777E-16
 -9.9149998E-04    3.8509093E-16
 -9.9099998E-04    1.0876625E-15
 -9.9049998E-04    1.8343638E-15
 -9.8999997E-04    2.5696453E-15
 -9.8949997E-04    3.2283712E-15
 -9.8899996E-04    3.7396395E-15
 -9.8849996E-04    4.0318184E-15
 -9.8799996E-04    4.0385747E-15
 -9.8749995E-04    3.7055616E-15
 -9.8699995E-04    2.9973030E-15
 -9.8649994E-04    1.9037072E-15
 -9.8600006E-04    4.4558893E-16
 -9.8550005E-04   -1.3214662E-15
 -9.8500005E-04   -3.3055202E-15
 -9.8450005E-04   -5.3795355E-15
 -9.8400004E-04   -7.3858537E-15
 -9.8350004E-04   -9.1440942E-15
 -9.8300003E-04   -1.0462393E-14
 -9.8250003E-04   -1.1151611E-14
 -9.8200003E-04   -1.1041810E-14
 -9.8150002E-04   -9.9999803E-15
 -9.8100002E-04   -7.9477347E-15
 -9.8050002E-04   -4.8774330E-15
 -9.8000001E-04   -8.6510524E-16
 -9.7950001E-04    3.9214818E-15
 -9.7900000E-04    9.2211217E-15
 -9.7850000E-04    1.4685068E-14
 -9.7800000E-04    1.9891307E-14
 -9.7749999E-04    2.4367401E-14
 -9.7699999E-04    2.7621424E-14
 -9.7649998E-04    2.9179692E-14
 -9.7599998E-04    2.8629236E-14
 -9.7549998E-04    2.5662232E-14
 -9.7499997E-04    2.0118950E-14
 -9.7450003E-04    1.2025346E-14
 -9.7400002E-04    1.6213056E-15
 -9.7350002E-04   -1.0624394E-14
 -9.7300002E-04   -2.4015756E-14
 -9.7250001E-04   -3.7650418E-14
 -9.7200001E-04   -5.0461022E-14
 -9.7150001E-04   -6.1276823E-14
 -9.7100000E-04   -6.8903670E-14
 -9.7050000E-04   -7.2218490E-14
 -9.6999999E-04   -7.0272713E-14
 -9.6949999E-04   -6.2397346E-14
 -9.6899999E-04   -4.8301329E-14
 -9.6849998E-04   -2.8153747E-14
 -9.6799998E-04   -2.6408270E-15
 -9.6749997E-04    2.7011044E-14
 -9.6700003E-04    5.9053226E-14
 -9.6650003E-04    9.1278398E-14
 -9.6600002E-04    1.2113136E-13
 -9.6550002E-04    1.4586498E-13
 -9.6500001E-04    1.6273505E-13
 -9.6450001E-04    1.6922377E-13
 -9.6400001E-04    1.6327755E-13
 -9.6350000E-04    1.4354175E-13
 -9.6300000E-04    1.0957240E-13
 -9.6249999E-04    6.2004248E-14
 -9.6199999E-04    2.6551523E-15
 -9.6149999E-04   -6.5451178E-14
 -9.6099998E-04   -1.3815725E-13
 -9.6049998E-04   -2.1034644E-13
 -9.5999998E-04   -2.7622018E-13
 -9.5949997E-04   -3.2966945E-13
 -9.5900003E-04   -3.6472333E-13
 -9.5850002E-04   -3.7604853E-13
 -9.5800002E-04   -3.5946606E-13
 -9.5750001E-04   -3.1244579E-13
 -9.5700001E-04   -2.3453434E-13
 -9.5650001E-04   -1.2767401E-13
 -9.5600000E-04    3.6296874E-15
 -9.5550000E-04    1.5232409E-13
 -9.5500000E-04    3.0903361E-13
 -9.5449999E-04    4.6250075E-13
 -9.5399999E-04    6.0023677E-13
 -9.5349998E-04    7.0935711E-13
 -9.5299998E-04    7.7755716E-13
 -9.5249998E-04    7.9416871E-13
 -9.5199997E-04    7.5122054E-13
 -9.5150003E-04    6.4441920E-13
 -9.5100002E-04    4.7395958E-13
 -9.5050002E-04    2.4507913E-13
 -9.5000002E-04   -3.1722167E-14
 -9.4950001E-04   -3.4085498E-13
 -9.4900001E-04   -6.6224229E-13
 -9.4850000E-04   -9.7235360E-13
 -9.4800000E-04   -1.2456427E-12
 -9.4750000E-04   -1.4563213E-12
 -9.4699999E-04   -1.5803680E-12
 -9.4649999E-04   -1.5976392E-12
 -9.4599999E-04   -1.4939253E-12
 -9.4549998E-04   -1.2627798E-12
 -9.4499998E-04   -9.0694981E-13
 -9.4449997E-04   -4.3924402E-13
 -9.4400003E-04    1.1729409E-13
 -9.4350002E-04    7.3000552E-13
 -9.4300002E-04    1.3580670E-12
 -9.4250002E-04    1.9547556E-12
 -9.4200001E-04    2.4704368E-12
 -9.4150001E-04    2.8561244E-12
 -9.4100001E-04    3.0673860E-12
 -9.4050000E-04    3.0683294E-12
 -9.4000000E-04    2.8353576E-12
 -9.3949999E-04    2.3603699E-12
 -9.3899999E-04    1.6530960E-12
 -9.3849999E-04    7.4228069E-13
 -9.3799998E-04   -3.2449507E-13
 -9.3749998E-04   -1.4824906E-12
 -9.3699998E-04   -2.6530056E-12
 -9.3649997E-04   -3.7480110E-12
 -9.3600003E-04   -4.6759966E-12
 -9.3550002E-04   -5.3486967E-12
 -9.3500002E-04   -5.6882598E-12
 -9.3450001E-04   -5.6343385E-12
 -9.3400001E-04   -5.1505367E-12
 -9.3350001E-04   -4.2296388E-12
 -9.3300000E-04   -2.8970964E-12
 -9.3250000E-04   -1.2123168E-12
 -9.3200000E-04    7.3255383E-13
 -9.3149999E-04    2.8165072E-12
 -9.3099999E-04    4.8961607E-12
 -9.3049998E-04    6.8145945E-12
 -9.2999998E-04    8.4120766E-12
 -9.2949998E-04    9.5380145E-12
 -9.2899997E-04    1.0063305E-11
 -9.2850003E-04    9.8921765E-12
 -9.2800002E-04    8.9725423E-12
 -9.2750002E-04    7.3039292E-12
 -9.2700002E-04    4.9421513E-12
 -9.2650001E-04    2.0000824E-12
 -9.2600001E-04   -1.3558773E-12
 -9.2550000E-04   -4.9137348E-12
 -9.2500000E-04   -8.4279996E-12
 -9.2450000E-04   -1.1635360E-11
 -9.2399999E-04   -1.4273022E-11
 -9.2349999E-04   -1.6098524E-11
 -9.2299999E-04   -1.6909614E-11
 -9.2249998E-04   -1.6562685E-11
 -9.2199998E-04   -1.4988196E-11
 -9.2149997E-04   -1.2201718E-11
 -9.2100003E-04   -8.3093862E-12
 -9.2050002E-04   -3.5069213E-12
 -9.2000002E-04    1.9281660E-12
 -9.1950002E-04    7.6511054E-12
 -9.1900001E-04    1.3270504E-11
 -9.1850001E-04    1.8373941E-11
 -9.1800001E-04    2.2556937E-11
 -9.1750000E-04    2.5453303E-11
 -9.1700000E-04    2.6764677E-11
 -9.1649999E-04    2.6286950E-11
 -9.1599999E-04    2.3931371E-11
 -9.1549999E-04    1.9738438E-11
 -9.1499998E-04    1.3883037E-11
 -9.1449998E-04    6.6699545E-12
 -9.1399997E-04   -1.4804684E-12
 -9.1349997E-04   -1.0056019E-11
 -9.1300003E-04   -1.8484377E-11
 -9.1250002E-04   -2.6170994E-11
 -9.1200002E-04   -3.2540578E-11
 -9.1150001E-04   -3.7079277E-11
 -9.1100001E-04   -3.9374396E-11
 -9.1050001E-04   -3.9148663E-11
 -9.1000000E-04   -3.6286169E-11
 -9.0950000E-04   -3.0847741E-11
 -9.0899999E-04   -2.3074213E-11
 -9.0849999E-04   -1.3376859E-11
 -9.0799999E-04   -2.3152324E-12
 -9.0749998E-04    9.4363198E-12
 -9.0699998E-04    2.1131406E-11
 -9.0649998E-04    3.2000680E-11
 -9.0599997E-04    4.1303863E-11
 -9.0550003E-04    4.8380931E-11
 -9.0500002E-04    5.2698745E-11
 -9.0450002E-04    5.3889618E-11
 -9.0400001E-04    5.1778970E-11
 -9.0350001E-04    4.6399884E-11
 -9.0300001E-04    3.7993570E-11
 -9.0250000E-04    2.6995539E-11
 -9.0200000E-04    1.4008686E-11
 -9.0150000E-04   -2.3477997E-13
 -9.0099999E-04   -1.4919637E-11
 -9.0049999E-04   -2.9198727E-11
 -8.9999998E-04   -4.2245055E-11
 -8.9949998E-04   -5.3301152E-11
 -8.9899998E-04   -6.1722412E-11
 -8.9849997E-04   -6.7011507E-11
 -8.9800003E-04   -6.8842126E-11
 -8.9750002E-04   -6.7071036E-11
 -8.9700002E-04   -6.1738545E-11
 -8.9650002E-04   -5.3058620E-11
 -8.9600001E-04   -4.1400321E-11
 -8.9550001E-04   -2.7263176E-11
 -8.9500000E-04   -1.1249123E-11
 -8.9450000E-04    5.9663021E-12
 -8.9400000E-04    2.3661288E-11
 -8.9349999E-04    4.1091925E-11
 -8.9299999E-04    5.7512505E-11
 -8.9249999E-04    7.2192016E-11
 -8.9199998E-04    8.4427930E-11
 -8.9149998E-04    9.3558952E-11
 -8.9099997E-04    9.8978929E-11
 -8.9050003E-04    1.0015418E-10
 -8.9000002E-04    9.6646025E-11
 -8.8950002E-04    8.8139836E-11
 -8.8900002E-04    7.4480387E-11
 -8.8850001E-04    5.5712161E-11
 -8.8800001E-04    3.2121694E-11
 -8.8750001E-04    4.2774391E-12
 -8.8700000E-04   -2.6938443E-11
 -8.8650000E-04   -6.0312720E-11
 -8.8599999E-04   -9.4304675E-11
 -8.8549999E-04   -1.2707647E-10
 -8.8499999E-04   -1.5655467E-10
 -8.8449998E-04   -1.8052489E-10
 -8.8399998E-04   -1.9675882E-10
 -8.8349998E-04   -2.0316931E-10
 -8.8299997E-04   -1.9798543E-10
 -8.8250003E-04   -1.7993607E-10
 -8.8200002E-04   -1.4842781E-10
 -8.8150002E-04   -1.0370037E-10
 -8.8100001E-04   -4.6942381E-11
 -8.8050001E-04    1.9648984E-11
 -8.8000001E-04    9.2878948E-11
 -8.7950000E-04    1.6864667E-10
 -8.7900000E-04    2.4212210E-10
 -8.7850000E-04    3.0800604E-10
 -8.7799999E-04    3.6086339E-10
 -8.7749999E-04    3.9551279E-10
 -8.7699998E-04    4.0744760E-10
 -8.7649998E-04    3.9325807E-10
 -8.7599998E-04    3.5102057E-10
 -8.7549997E-04    2.8061772E-10
 -8.7500003E-04    1.8395528E-10
 -8.7450002E-04    6.5046378E-11
 -8.7400002E-04   -7.0058952E-11
 -8.7350002E-04   -2.1351050E-10
 -8.7300001E-04   -3.5605943E-10
 -8.7250001E-04   -4.8760995E-10
 -8.7200000E-04   -5.9789207E-10
 -8.7150000E-04   -6.7721373E-10
 -8.7100000E-04   -7.1723988E-10
 -8.7049999E-04   -7.1173867E-10
 -8.6999999E-04   -6.5723249E-10
 -8.6949999E-04   -5.5349364E-10
 -8.6899998E-04   -4.0383102E-10
 -8.6849998E-04   -2.1512851E-10
 -8.6799997E-04    2.3891119E-12
 -8.6750003E-04    2.3566532E-10
 -8.6700002E-04    4.6957671E-10
 -8.6650002E-04    6.8791223E-10
 -8.6600002E-04    8.7450347E-10
 -8.6550001E-04    1.0144273E-09
 -8.6500001E-04    1.0951905E-09
 -8.6450001E-04    1.1077989E-09
 -8.6400000E-04    1.0476208E-09
 -8.6350000E-04    9.1496261E-10
 -8.6299999E-04    7.1529360E-10
 -8.6249999E-04    4.5908338E-10
 -8.6199999E-04    1.6124550E-10
 -8.6149998E-04   -1.5978824E-10
 -8.6099998E-04   -4.8330434E-10
 -8.6049997E-04   -7.8776807E-10
 -8.5999997E-04   -1.0523981E-09
 -8.5950003E-04   -1.2587293E-09
 -8.5900002E-04   -1.3920369E-09
 -8.5850002E-04   -1.4424938E-09
 -8.5800001E-04   -1.4059620E-09
 -8.5750001E-04   -1.2843370E-09
 -8.5700001E-04   -1.0854060E-09
 -8.5650000E-04   -8.2222312E-10
 -8.5600000E-04   -5.1204468E-10
 -8.5549999E-04   -1.7491476E-10
 -8.5499999E-04    1.6797828E-10
 -8.5449999E-04    4.9602428E-10
 -8.5399998E-04    7.9083207E-10
 -8.5349998E-04    1.0376309E-09
 -8.5299998E-04    1.2262906E-09
 -8.5249997E-04    1.3518558E-09
 -8.5200003E-04    1.4145312E-09
 -8.5150002E-04    1.4191127E-09
 -8.5100002E-04    1.3739186E-09
 -8.5050002E-04    1.2893284E-09
 -8.5000001E-04    1.1760911E-09
 -8.4950001E-04    1.0435985E-09
 -8.4900000E-04    8.9833829E-10
 -8.4850000E-04    7.4273554E-10
 -8.4800000E-04    5.7456906E-10
 -8.4749999E-04    3.8709427E-10
 -8.4699999E-04    1.6993874E-10
 -8.4649998E-04   -8.9248726E-11
 -8.4599998E-04   -4.0250525E-10
 -8.4549998E-04   -7.7881596E-10
 -8.4499997E-04   -1.2212089E-09
 -8.4450003E-04   -1.7240180E-09
 -8.4400002E-04   -2.2706781E-09
 -8.4350002E-04   -2.8324139E-09
 -8.4300002E-04   -3.3681335E-09
 -8.4250001E-04   -3.8257659E-09
 -8.4200001E-04   -4.1451473E-09
 -8.4150000E-04   -4.2624300E-09
 -8.4100000E-04   -4.1158201E-09
 -8.4050000E-04   -3.6522771E-09
 -8.3999999E-04   -2.8346678E-09
 -8.3949999E-04   -1.6487353E-09
 -8.3899999E-04   -1.0916740E-10
 -8.3849998E-04    1.7359678E-09
 -8.3799998E-04    3.8031138E-09
 -8.3749997E-04    5.9740097E-09
 -8.3700003E-04    8.0997538E-09
 -8.3650002E-04    1.0008289E-08
 -8.3600002E-04    1.1515137E-08
 -8.3550002E-04    1.2436936E-08
 -8.3500001E-04    1.2606964E-08
 -8.3450001E-04    1.1891617E-08
 -8.3400001E-04    1.0206500E-08
 -8.3350000E-04    7.5307343E-09
 -8.3300000E-04    3.9180010E-09
 -8.3249999E-04   -4.9706139E-10
 -8.3199999E-04   -5.4982370E-09
 -8.3149999E-04   -1.0793710E-08
 -8.3099998E-04   -1.6028974E-08
 -8.3049998E-04   -2.0806482E-08
 -8.2999998E-04   -2.4711275E-08
 -8.2949997E-04   -2.7341189E-08
 -8.2900003E-04   -2.8339789E-08
 -8.2850002E-04   -2.7429641E-08
 -8.2800002E-04   -2.4443338E-08
 -8.2750001E-04   -1.9349493E-08
 -8.2700001E-04   -1.2271094E-08
 -8.2650001E-04   -3.4939236E-09
 -8.2600000E-04    6.5367489E-09
 -8.2550000E-04    1.7232157E-08
 -8.2500000E-04    2.7888841E-08
 -8.2449999E-04    3.7729315E-08
 -8.2399999E-04    4.5952710E-08
 -8.2349998E-04    5.1792433E-08
 -8.2299998E-04    5.4577086E-08
 -8.2249998E-04    5.3790316E-08
 -8.2199997E-04    4.9124850E-08
 -8.2150003E-04    4.0526036E-08
 -8.2100002E-04    2.8220551E-08
 -8.2050002E-04    1.2726736E-08
 -8.2000002E-04   -5.1559472E-09
 -8.1950001E-04   -2.4379430E-08
 -8.1900001E-04   -4.3701021E-08
 -8.1850000E-04   -6.1756722E-08
 -8.1800000E-04   -7.7150005E-08
 -8.1750000E-04   -8.8550749E-08
 -8.1699999E-04   -9.4797855E-08
 -8.1649999E-04   -9.4998050E-08
 -8.1599999E-04   -8.8613412E-08
 -8.1549998E-04   -7.5529989E-08
 -8.1499998E-04   -5.6101122E-08
 -8.1449997E-04   -3.1160106E-08
 -8.1400003E-04   -1.9989801E-09
 -8.1350002E-04    2.9687669E-08
 -8.1300002E-04    6.1892379E-08
 -8.1250002E-04    9.2413934E-08
 -8.1200001E-04    1.1899931E-07
 -8.1150001E-04    1.3949997E-07
 -8.1100001E-04    1.5203193E-07
 -8.1050000E-04    1.5512842E-07
 -8.1000000E-04    1.4787356E-07
 -8.0949999E-04    1.3000607E-07
 -8.0899999E-04    1.0198361E-07
 -8.0849999E-04    6.5000350E-08
 -8.0799998E-04    2.0953728E-08
 -8.0749998E-04   -2.7640755E-08
 -8.0699997E-04   -7.7783760E-08
 -8.0649997E-04   -1.2616894E-07
 -8.0600003E-04   -1.6939238E-07
 -8.0550002E-04   -2.0418180E-07
 -8.0500002E-04   -2.2763064E-07
 -8.0450001E-04   -2.3742064E-07
 -8.0400001E-04   -2.3201676E-07
 -8.0350001E-04   -2.1081924E-07
 -8.0300000E-04   -1.7425977E-07
 -8.0250000E-04   -1.2383204E-07
 -8.0200000E-04   -6.2051065E-08
 -8.0149999E-04    7.6594713E-09
 -8.0099999E-04    8.1148151E-08
 -8.0049998E-04    1.5377555E-07
 -7.9999998E-04    2.2069952E-07
 -7.9949998E-04    2.7718869E-07
 -7.9899997E-04    3.1894399E-07
 -7.9850003E-04    3.4240682E-07
 -7.9800002E-04    3.4503262E-07
 -7.9750002E-04    3.2550929E-07
 -7.9700002E-04    2.8390414E-07
 -7.9650001E-04    2.2172568E-07
 -7.9600001E-04    1.4189347E-07
 -7.9550000E-04    4.8613416E-08
 -7.9500000E-04   -5.2836079E-08
 -7.9450000E-04   -1.5639721E-07
 -7.9399999E-04   -2.5558833E-07
 -7.9349999E-04   -3.4390123E-07
 -7.9299998E-04   -4.1521605E-07
 -7.9249998E-04   -4.6420692E-07
 -7.9199998E-04   -4.8671262E-07
 -7.9149997E-04   -4.8004705E-07
 -7.9100003E-04   -4.4322769E-07
 -7.9050002E-04   -3.7710538E-07
 -7.9000002E-04   -2.8438376E-07
 -7.8950002E-04   -1.6952451E-07
 -7.8900001E-04   -3.8540470E-08
 -7.8850001E-04    1.0131340E-07
 -7.8800000E-04    2.4193514E-07
 -7.8750000E-04    3.7483522E-07
 -7.8700000E-04    4.9163401E-07
 -7.8649999E-04    5.8456845E-07
 -7.8599999E-04    6.4697809E-07
 -7.8549999E-04    6.7374083E-07
 -7.8499998E-04    6.6163193E-07
 -7.8449998E-04    6.0958337E-07
 -7.8399997E-04    5.1882648E-07
 -7.8350003E-04    3.9290629E-07
 -7.8300002E-04    2.3756412E-07
 -7.8250002E-04    6.0492034E-08
 -7.8200002E-04   -1.2903122E-07
 -7.8150001E-04   -3.2060495E-07
 -7.8100001E-04   -5.0324940E-07
 -7.8050001E-04   -6.6599989E-07
 -7.8000000E-04   -7.9852111E-07
 -7.7950000E-04   -8.9170982E-07
 -7.7899999E-04   -9.3825389E-07
 -7.7849999E-04   -9.3311661E-07
 -7.7799999E-04   -8.7391862E-07
 -7.7749998E-04   -7.6119380E-07
 -7.7699998E-04   -5.9850100E-07
 -7.7649998E-04   -3.9237966E-07
 -7.7599997E-04   -1.5214511E-07
 -7.7550003E-04    1.1047438E-07
 -7.7500002E-04    3.8184749E-07
 -7.7450002E-04    6.4707910E-07
 -7.7400001E-04    8.9075303E-07
 -7.7350001E-04    1.0977462E-06
 -7.7300001E-04    1.2540778E-06
 -7.7250000E-04    1.3477498E-06
 -7.7200000E-04    1.3695367E-06
 -7.7150000E-04    1.3136769E-06
 -7.7099999E-04    1.1784244E-06
 -7.7049999E-04    9.6642009E-07
 -7.6999998E-04    6.8484604E-07
 -7.6949998E-04    3.4534182E-07
 -7.6899998E-04   -3.6335983E-08
 -7.6849997E-04   -4.4091124E-07
 -7.6800003E-04   -8.4643199E-07
 -7.6750002E-04   -1.2293331E-06
 -7.6700002E-04   -1.5656765E-06
 -7.6650002E-04   -1.8325140E-06
 -7.6600001E-04   -2.0093014E-06
 -7.6550001E-04   -2.0792891E-06
 -7.6500000E-04   -2.0308032E-06
 -7.6450000E-04   -1.8583302E-06
 -7.6400000E-04   -1.5633257E-06
 -7.6349999E-04   -1.1546701E-06
 -7.6299999E-04   -6.4871568E-07
 -7.6249999E-04   -6.8882713E-08
 -7.6199998E-04    5.5520638E-07
 -7.6149998E-04    1.1890450E-06
 -7.6099997E-04    1.7949683E-06
 -7.6050003E-04    2.3342157E-06
 -7.6000002E-04    2.7692276E-06
 -7.5950002E-04    3.0660540E-06
 -7.5900002E-04    3.1967306E-06
 -7.5850001E-04    3.1414706E-06
 -7.5800001E-04    2.8905147E-06
 -7.5750001E-04    2.4454966E-06
 -7.5700000E-04    1.8201958E-06
 -7.5650000E-04    1.0405784E-06
 -7.5599999E-04    1.4406949E-07
 -7.5549999E-04   -8.2195754E-07
 -7.5499999E-04   -1.8024405E-06
 -7.5449998E-04   -2.7375445E-06
 -7.5399998E-04   -3.5661005E-06
 -7.5349997E-04   -4.2293777E-06
 -7.5299997E-04   -4.6749765E-06
 -7.5250003E-04   -4.8605898E-06
 -7.5200002E-04   -4.7573876E-06
 -7.5150002E-04   -4.3527716E-06
 -7.5100001E-04   -3.6522763E-06
 -7.5050001E-04   -2.6804366E-06
 -7.5000001E-04   -1.4804923E-06
 -7.4950000E-04   -1.1286492E-07
 -7.4900000E-04    1.3475674E-06
 -7.4850000E-04    2.8153083E-06
 -7.4799999E-04    4.1990124E-06
 -7.4749999E-04    5.4069369E-06
 -7.4699998E-04    6.3527627E-06
 -7.4649998E-04    6.9614298E-06
 -7.4599998E-04    7.1746090E-06