 -1.2000001E-03    1.0000000E-24
 -1.1995001E-03    1.0000000E-24
 -1.1990000E-03    1.0000000E-24
 -1.1985000E-03    1.0000000E-24
 -1.1980000E-03    1.0000000E-24
 -1.1975000E-03    1.0000000E-24
 -1.1970000E-03    1.0000000E-24
 -1.1965000E-03    1.0000000E-24
 -1.1960000E-03    1.0000001E-24
 -1.1955000E-03    1.0000001E-24
 -1.1950000E-03    1.0000001E-24
 -1.1945000E-03    1.0000001E-24
 -1.1940000E-03    1.0000001E-24
 -1.1935000E-03    1.0000001E-24
 -1.1930000E-03    1.0000001E-24
 -1.1925000E-03    1.0000001E-24
 -1.1920000E-03    1.0000000E-24
 -1.1915000E-03    9.9999903E-25
 -1.1910000E-03    9.9999371E-25
 -1.1905000E-03    9.9996896E-25
 -1.1900000E-03    9.9986769E-25
 -1.1895000E-03    9.9949712E-25
 -1.1890000E-03    9.9826729E-25
 -1.1885000E-03    9.9452661E-25
 -1.1880000E-03    9.8401356E-25
 -1.1875000E-03    9.5654956E-25
 -1.1870000E-03    8.8957872E-25
 -1.1865000E-03    7.3676044E-25
 -1.1860000E-03    4.1025079E-25
 -1.1854999E-03   -2.4176605E-25
 -1.1849999E-03   -1.4520135E-24
 -1.1845001E-03   -3.5149027E-24
 -1.1840001E-03   -6.6593263E-24
 -1.1835000E-03   -1.0666453E-23
 -1.1830000E-03   -1.3960186E-23
 -1.1825000E-03   -1.1706854E-23
 -1.1820000E-03    7.8038436E-24
 -1.1815000E-03    6.9547189E-23
 -1.1810000E-03    2.2229245E-22
 -1.1805000E-03    5.5482574E-22
 -1.1800000E-03    1.2192113E-21
 -1.1795000E-03    2.4614314E-21
 -1.1790000E-03    4.6573580E-21
 -1.1785000E-03    8.3474835E-21
 -1.1780000E-03    1.4256325E-20
 -1.1775000E-03    2.3271124E-20
 -1.1770000E-03    3.6339004E-20
 -1.1765000E-03    5.4222717E-20
 -1.1760000E-03    7.7034342E-20
 -1.1755000E-03    1.0344872E-19
 -1.1750000E-03    1.2949114E-19
 -1.1745000E-03    1.4680929E-19
 -1.1740000E-03    1.4039306E-19
 -1.1735000E-03    8.5817371E-20
 -1.1730000E-03   -5.3725633E-20
 -1.1725000E-03   -3.3005049E-19
 -1.1720000E-03   -8.1130696E-19
 -1.1715000E-03   -1.5805658E-18
 -1.1710000E-03   -2.7296545E-18
 -1.1704999E-03   -4.3456922E-18
 -1.1699999E-03   -6.4873728E-18
 -1.1695001E-03   -9.1480022E-18
 -1.1690001E-03   -1.2202821E-17
 -1.1685000E-03   -1.5339611E-17
 -1.1680000E-03   -1.7974284E-17
 -1.1675000E-03   -1.9157304E-17
 -1.1670000E-03   -1.7482858E-17
 -1.1665000E-03   -1.1020113E-17
 -1.1660000E-03    2.7049879E-18
 -1.1655000E-03    2.6639762E-17
 -1.1650000E-03    6.4000618E-17
 -1.1645000E-03    1.1788351E-16
 -1.1640000E-03    1.9063866E-16
 -1.1635000E-03    2.8296938E-16
 -1.1630000E-03    3.9273810E-16
 -1.1625000E-03    5.1350197E-16
 -1.1620000E-03    6.3285892E-16
 -1.1615000E-03    7.3076317E-16
 -1.1610000E-03    7.7806382E-16
 -1.1605000E-03    7.3562519E-16
 -1.1600000E-03    5.5449455E-16
 -1.1595000E-03    1.7766765E-16
 -1.1590000E-03   -4.5594809E-16
 -1.1585000E-03   -1.4047946E-15
 -1.1580000E-03   -2.7146902E-15
 -1.1575000E-03   -4.4054090E-15
 -1.1570000E-03   -6.4540048E-15
 -1.1565000E-03   -8.7756239E-15
 -1.1560000E-03   -1.1203292E-14
 -1.1555000E-03   -1.3469005E-14
 -1.1549999E-03   -1.5189347E-14
 -1.1544999E-03   -1.5859787E-14
 -1.1540001E-03   -1.4862426E-14
 -1.1535001E-03   -1.1492375E-14
 -1.1530000E-03   -5.0076673E-15
 -1.1525000E-03    5.2933291E-15
 -1.1520000E-03    1.9964977E-14
 -1.1515000E-03    3.9278893E-14
 -1.1510000E-03    6.3065005E-14
 -1.1505000E-03    9.0539372E-14
 -1.1500000E-03    1.2013475E-13
 -1.1495000E-03    1.4935629E-13
 -1.1490000E-03    1.7468995E-13
 -1.1485000E-03    1.9159618E-13
 -1.1480000E-03    1.9462288E-13
 -1.1475000E-03    1.7767054E-13
 -1.1470000E-03    1.3443599E-13
 -1.1465000E-03    5.9049885E-14
 -1.1460000E-03   -5.3094912E-14
 -1.1455000E-03   -2.0435033E-13
 -1.1450000E-03   -3.9371067E-13
 -1.1445000E-03   -6.1568822E-13
 -1.1440000E-03   -8.5928752E-13
 -1.1435000E-03   -1.1072285E-12
 -1.1430000E-03   -1.3355914E-12
 -1.1425000E-03   -1.5140671E-12
 -1.1420000E-03   -1.6069853E-12
 -1.1415000E-03   -1.5752665E-12
 -1.1410000E-03   -1.3793817E-12
 -1.1405000E-03   -9.8332280E-13
 -1.1399999E-03   -3.5947089E-13
 -1.1394999E-03    5.0587898E-13
 -1.1390001E-03    1.6067308E-12
 -1.1385001E-03    2.9118743E-12
 -1.1380001E-03    4.3603151E-12
 -1.1375000E-03    5.8584127E-12
 -1.1370000E-03    7.2795268E-12
 -1.1365000E-03    8.4669381E-12
 -1.1360000E-03    9.2406725E-12
 -1.1355000E-03    9.4086197E-12
 -1.1350000E-03    8.7819873E-12
 -1.1345000E-03    7.1946980E-12
 -1.1340000E-03    4.5257821E-12
 -1.1335000E-03    7.2329978E-13
 -1.1330000E-03   -4.1722715E-12
 -1.1325000E-03   -1.0007684E-11
 -1.1320000E-03   -1.6502476E-11
 -1.1315000E-03   -2.3243379E-11
 -1.1310000E-03   -2.9690382E-11
 -1.1305000E-03   -3.5196734E-11
 -1.1300000E-03   -3.9044275E-11
 -1.1295000E-03   -4.0494292E-11
 -1.1290000E-03   -3.8852477E-11
 -1.1285000E-03   -3.3544847E-11
 -1.1280000E-03   -2.4199595E-11
 -1.1275000E-03   -1.0728080E-11
 -1.1270000E-03    6.6033169E-12
 -1.1265000E-03    2.7119682E-11
 -1.1260000E-03    4.9711773E-11
 -1.1255000E-03    7.2846645E-11
 -1.1250000E-03    9.4621505E-11
 -1.1244999E-03    1.1286477E-10
 -1.1239999E-03    1.2528428E-10
 -1.1235001E-03    1.2965796E-10
 -1.1230001E-03    1.2405656E-10
 -1.1225000E-03    1.0708319E-10
 -1.1220000E-03    7.8109186E-11
 -1.1215000E-03    3.7481865E-11
 -1.1210000E-03   -1.3321844E-11
 -1.1205000E-03   -7.1622187E-11
 -1.1200000E-03   -1.3356669E-10
 -1.1195000E-03   -1.9428058E-10
 -1.1190000E-03   -2.4814592E-10
 -1.1185000E-03   -2.8920563E-10
 -1.1180000E-03   -3.1167563E-10
 -1.1175000E-03   -3.1053357E-10
 -1.1170000E-03   -2.8213953E-10
 -1.1165000E-03   -2.2483103E-10
 -1.1160000E-03   -1.3942800E-10
 -1.1155000E-03   -2.9579176E-11
 -1.1150000E-03    9.8113705E-11
 -1.1145000E-03    2.3424734E-10
 -1.1140000E-03    3.6707817E-10
 -1.1135000E-03    4.8330157E-10
 -1.1130000E-03    5.6912647E-10
 -1.1125000E-03    6.1158684E-10
 -1.1120000E-03    5.9999689E-10
 -1.1115000E-03    5.2742477E-10
 -1.1110000E-03    3.9203554E-10
 -1.1105000E-03    1.9813913E-10
 -1.1100000E-03   -4.3216250E-11
 -1.1094999E-03   -3.1424915E-10
 -1.1089999E-03   -5.9115307E-10
 -1.1084999E-03   -8.4555790E-10
 -1.1080001E-03   -1.0467250E-09
 -1.1075001E-03   -1.1643738E-09
 -1.1070000E-03   -1.1719568E-09
 -1.1065000E-03   -1.0501146E-09
 -1.1060000E-03   -7.8998319E-10
 -1.1055000E-03   -3.9597631E-10
 -1.1050000E-03    1.1234182E-10
 -1.1045000E-03    6.9965017E-10
 -1.1040000E-03    1.3158205E-09
 -1.1035000E-03    1.8985959E-09
 -1.1030000E-03    2.3780264E-09
 -1.1025000E-03    2.6825013E-09
 -1.1020000E-03    2.7460323E-09
 -1.1015000E-03    2.5162465E-09
 -1.1010000E-03    1.9623758E-09
 -1.1005000E-03    1.0824116E-09
 -1.1000000E-03   -9.1465127E-11
 -1.0995000E-03   -1.4900466E-09
 -1.0990000E-03   -3.0076002E-09
 -1.0985000E-03   -4.5062389E-09
 -1.0980000E-03   -5.8243859E-09
 -1.0975000E-03   -6.7891683E-09
 -1.0970000E-03   -7.2321535E-09
 -1.0965000E-03   -7.0073924E-09
 -1.0960000E-03   -6.0103296E-09
 -1.0955000E-03   -4.1958077E-09
 -1.0950000E-03   -1.5931897E-09
 -1.0945000E-03    1.6834082E-09
 -1.0939999E-03    5.4316254E-09
 -1.0934999E-03    9.3655759E-09
 -1.0930001E-03    1.3129674E-08
 -1.0925001E-03    1.6321680E-08
 -1.0920000E-03    1.8524197E-08
 -1.0915000E-03    1.9342872E-08
 -1.0910000E-03    1.8448628E-08
 -1.0905000E-03    1.5620410E-08
 -1.0900000E-03    1.0784387E-08
 -1.0895000E-03    4.0452006E-09
 -1.0890000E-03   -4.2949853E-09
 -1.0885000E-03   -1.3733362E-08
 -1.0880000E-03   -2.3581991E-08
 -1.0875000E-03   -3.3003289E-08
 -1.0870000E-03   -4.1065057E-08
 -1.0865000E-03   -4.6812680E-08
 -1.0860000E-03   -4.9354117E-08
 -1.0855000E-03   -4.7951509E-08
 -1.0850000E-03   -4.2111616E-08
 -1.0845000E-03   -3.1666431E-08
 -1.0840000E-03   -1.6835060E-08
 -1.0835000E-03    1.7416044E-09
 -1.0830000E-03    2.3000199E-08
 -1.0825000E-03    4.5492879E-08
 -1.0820000E-03    6.7465436E-08
 -1.0815000E-03    8.6973522E-08
 -1.0810000E-03    1.0203096E-07
 -1.0805000E-03    1.1078049E-07
 -1.0800000E-03    1.1167385E-07
 -1.0795000E-03    1.0364565E-07
 -1.0790000E-03    8.6264386E-08
 -1.0784999E-03    5.9843849E-08
 -1.0779999E-03    2.5500089E-08
 -1.0775001E-03   -1.4857241E-08
 -1.0770001E-03   -5.8605831E-08
 -1.0765000E-03   -1.0256418E-07
 -1.0760000E-03   -1.4321112E-07
 -1.0755000E-03   -1.7695808E-07
 -1.0750000E-03   -2.0045401E-07
 -1.0745000E-03   -2.1089819E-07
 -1.0740000E-03   -2.0633256E-07
 -1.0735000E-03   -1.8588420E-07
 -1.0730000E-03   -1.4993076E-07
 -1.0725000E-03   -1.0016628E-07
 -1.0720000E-03   -3.9552241E-08
 -1.0715000E-03    2.7851540E-08
 -1.0710000E-03    9.7170286E-08
 -1.0705000E-03    1.6309433E-07
 -1.0700000E-03    2.2032700E-07
 -1.0695000E-03    2.6406221E-07
 -1.0690000E-03    2.9044716E-07
 -1.0685000E-03    2.9698296E-07
 -1.0680000E-03    2.8281821E-07
 -1.0675000E-03    2.4889738E-07
 -1.0670000E-03    1.9793782E-07
 -1.0665000E-03    1.3422407E-07
 -1.0660000E-03    6.3227276E-08
 -1.0655000E-03   -8.9235517E-09
 -1.0650000E-03   -7.6073363E-08
 -1.0645000E-03   -1.3271462E-07
 -1.0640000E-03   -1.7463110E-07
 -1.0634999E-03   -1.9943617E-07
 -1.0629999E-03   -2.0693358E-07
 -1.0625001E-03   -1.9924089E-07
 -1.0620001E-03   -1.8063619E-07
 -1.0615001E-03   -1.5711538E-07
 -1.0610000E-03   -1.3567926E-07
 -1.0605000E-03   -1.2340354E-07
 -1.0600000E-03   -1.2637643E-07
 -1.0595000E-03   -1.4861577E-07
 -1.0590000E-03   -1.9109483E-07
 -1.0585000E-03   -2.5101249E-07
 -1.0580000E-03   -3.2143436E-07
 -1.0575000E-03   -3.9140755E-07
 -1.0570000E-03   -4.4661385E-07
 -1.0565000E-03   -4.7057350E-07
 -1.0560000E-03   -4.4635235E-07
 -1.0555000E-03   -3.5866054E-07
 -1.0550000E-03   -1.9616913E-07
 -1.0545000E-03    4.6180695E-08
 -1.0540000E-03    3.6513683E-07
 -1.0535000E-03    7.4763875E-07
 -1.0530000E-03    1.1701235E-06
 -1.0525000E-03    1.5988527E-06
 -1.0520000E-03    1.9914044E-06
 -1.0515000E-03    2.2993747E-06
 -1.0510000E-03    2.4722176E-06
 -1.0505000E-03    2.4620194E-06
 -1.0500000E-03    2.2288775E-06
 -1.0495000E-03    1.7464421E-06
 -1.0490000E-03    1.0070883E-06
 -1.0485000E-03    2.6146376E-08
 -1.0479999E-03   -1.1553826E-06
 -1.0474999E-03   -2.4701337E-06
 -1.0470001E-03   -3.8260982E-06
 -1.0465001E-03   -5.1109710E-06
 -1.0460000E-03   -6.1991159E-06
 -1.0455000E-03   -6.9608991E-06
 -1.0450000E-03   -7.2738571E-06
 -1.0445000E-03   -7.0349456E-06
 -1.0440000E-03   -6.1728824E-06
 -1.0435000E-03   -4.6594623E-06
 -1.0430000E-03   -2.5186600E-06
 -1.0425000E-03    1.6763039E-07
 -1.0420000E-03    3.2581963E-06
 -1.0415000E-03    6.5561917E-06
 -1.0410000E-03    9.8182518E-06
 -1.0405000E-03    1.2768970E-05
 -1.0400000E-03    1.5120144E-05
 -1.0395000E-03    1.6593727E-05
 -1.0390000E-03    1.6946931E-05
 -1.0385000E-03    1.5997555E-05
 -1.0380000E-03    1.3647348E-05
 -1.0375000E-03    9.9011340E-06
 -1.0370000E-03    4.8795082E-06
 -1.0365000E-03   -1.1767520E-06
 -1.0360000E-03   -7.9119582E-06
 -1.0355000E-03   -1.4871125E-05
 -1.0350000E-03   -2.1525806E-05
 -1.0345000E-03   -2.7309110E-05
 -1.0340000E-03   -3.1657964E-05
 -1.0335000E-03   -3.4059827E-05
 -1.0329999E-03   -3.4100420E-05
 -1.0324999E-03   -3.1508502E-05
 -1.0319999E-03   -2.6193698E-05
 -1.0315001E-03   -1.8273366E-05
 -1.0310001E-03   -8.0851760E-06
 -1.0305000E-03    3.8171111E-06
 -1.0300000E-03    1.6686052E-05
 -1.0295000E-03    2.9621020E-05
 -1.0290000E-03    4.1625248E-05
 -1.0285000E-03    5.1676285E-05
 -1.0280000E-03    5.8805286E-05
 -1.0275000E-03    6.2179519E-05
 -1.0270000E-03    6.1181468E-05
 -1.0265000E-03    5.5477874E-05
 -1.0260000E-03    4.5072036E-05
 -1.0255000E-03    3.0333651E-05
 -1.0250000E-03    1.2001830E-05
 -1.0245000E-03   -8.8412880E-06
 -1.0240000E-03   -3.0826643E-05
 -1.0235000E-03   -5.2381969E-05
 -1.0230000E-03   -7.1838593E-05
 -1.0225000E-03   -8.7554508E-05
 -1.0220000E-03   -9.8045020E-05
 -1.0215000E-03   -1.0211102E-04
 -1.0210000E-03   -9.8954333E-05
 -1.0205000E-03   -8.8269895E-05
 -1.0200000E-03   -7.0305599E-05
 -1.0195000E-03   -4.5882705E-05
 -1.0190000E-03   -1.6372376E-05
 -1.0185000E-03    1.6372815E-05
 -1.0180000E-03    5.0129966E-05
 -1.0174999E-03    8.2453480E-05
 -1.0169999E-03    1.1084972E-04
 -1.0165001E-03    1.3296657E-04
 -1.0160001E-03    1.4678352E-04
 -1.0155000E-03    1.5078722E-04
 -1.0150000E-03    1.4411764E-04
 -1.0145000E-03    1.2667121E-04
 -1.0140000E-03    9.9150588E-05
 -1.0135000E-03    6.3053900E-05
 -1.0130000E-03    2.0601041E-05
 -1.0125000E-03   -2.5400313E-05
 -1.0120000E-03   -7.1741502E-05
 -1.0115000E-03   -1.1504009E-04
 -1.0110000E-03   -1.5199152E-04
 -1.0105000E-03   -1.7962596E-04
 -1.0100000E-03   -1.9555040E-04
 -1.0095000E-03   -1.9815571E-04
 -1.0090000E-03   -1.8677078E-04
 -1.0085000E-03   -1.6174896E-04
 -1.0080000E-03   -1.2447746E-04
 -1.0075000E-03   -7.7305667E-05
 -1.0070000E-03   -2.3395225E-05
 -1.0065000E-03    3.3498865E-05
 -1.0060000E-03    8.9300898E-05
 -1.0055000E-03    1.3992061E-04
 -1.0050000E-03    1.8156924E-04
 -1.0045000E-03    2.1105987E-04
 -1.0040000E-03    2.2606770E-04
 -1.0035000E-03    2.2532717E-04
 -1.0030000E-03    2.0874894E-04
 -1.0025000E-03    1.7744460E-04
 -1.0019999E-03    1.3365502E-04
 -1.0014999E-03    8.0586193E-05
 -1.0010001E-03    2.2164095E-05
 -1.0005001E-03   -3.7272552E-05
 -1.0000000E-03   -9.3317067E-05
 -9.9950004E-04   -1.4184888E-04
 -9.9900004E-04   -1.7936704E-04
 -9.9850004E-04   -2.0327434E-04
 -9.9800003E-04   -2.1208735E-04
 -9.9750003E-04   -2.0555292E-04
 -9.9700002E-04   -1.8465989E-04
 -9.9650002E-04   -1.5154373E-04
 -9.9600002E-04   -1.0929131E-04
 -9.9550001E-04   -6.1661529E-05
 -9.9500001E-04   -1.2746467E-05
 -9.9450001E-04    3.3397628E-05
 -9.9400000E-04    7.3115865E-05
 -9.9350000E-04    1.0348321E-04
 -9.9299999E-04    1.2256496E-04
 -9.9249999E-04    1.2958366E-04
 -9.9199999E-04    1.2497533E-04
 -9.9149998E-04    1.1032754E-04
 -9.9099998E-04    8.8203102E-05
 -9.9049998E-04    6.1864092E-05
 -9.8999997E-04    3.4920864E-05
 -9.8949997E-04    1.0938880E-05
 -9.8899996E-04   -6.9585749E-06
 -9.8849996E-04   -1.6452037E-05
 -9.8799996E-04   -1.6313805E-05
 -9.8749995E-04   -6.5898298E-06
 -9.8699995E-04    1.1347840E-05
 -9.8649994E-04    3.4889850E-05
 -9.8600006E-04    6.0418031E-05
 -9.8550005E-04    8.3658138E-05
 -9.8500005E-04    1.0012839E-04
 -9.8450005E-04    1.0564405E-04
 -9.8400004E-04    9.6830692E-05
 -9.8350004E-04    7.1594535E-05
 -9.8300003E-04    2.9499401E-05
 -9.8250003E-04   -2.7994756E-05
 -9.8200003E-04   -9.7466305E-05
 -9.8150002E-04   -1.7365998E-04
 -9.8100002E-04   -2.4981191E-04
 -9.8050002E-04   -3.1815676E-04
 -9.8000001E-04   -3.7058350E-04
 -9.7950001E-04   -3.9939041E-04
 -9.7900000E-04   -3.9807649E-04
 -9.7850000E-04   -3.6209851E-04
 -9.7800000E-04   -2.8952039E-04
 -9.7749999E-04   -1.8148682E-04
 -9.7699999E-04   -4.2462088E-05
 -9.7649998E-04    1.1980683E-04
 -9.7599998E-04    2.9462331E-04
 -9.7549998E-04    4.6896588E-04
 -9.7499997E-04    6.2837370E-04
 -9.7450003E-04    7.5803802E-04
 -9.7400002E-04    8.4402191E-04
 -9.7350002E-04    8.7451382E-04
 -9.7300002E-04    8.4101176E-04
 -9.7250001E-04    7.3933299E-04
 -9.7200001E-04    5.7034969E-04
 -9.7150001E-04    3.4037136E-04
 -9.7100000E-04    6.1112922E-05
 -9.7050000E-04   -2.5077706E-04
 -9.6999999E-04   -5.7462265E-04
 -9.6949999E-04   -8.8701799E-04
 -9.6899999E-04   -1.1634398E-03
 -9.6849998E-04   -1.3800667E-03
 -9.6799998E-04   -1.5156738E-03
 -9.6749997E-04   -1.5534604E-03
 -9.6700003E-04   -1.4826577E-03
 -9.6650003E-04   -1.2997828E-03
 -9.6600002E-04   -1.0094130E-03
 -9.6550002E-04   -6.2439725E-04
 -9.6500001E-04   -1.6544855E-04
 -9.6450001E-04    3.3988140E-04
 -9.6400001E-04    8.5880671E-04
 -9.6350000E-04    1.3553982E-03
 -9.6300000E-04    1.7930311E-03
 -9.6249999E-04    2.1370209E-03
 -9.6199999E-04    2.3572627E-03
 -9.6149999E-04    2.4306723E-03
 -9.6099998E-04    2.3432414E-03
 -9.6049998E-04    2.0915309E-03
 -9.5999998E-04    1.6834711E-03
 -9.5949997E-04    1.1383711E-03
 -9.5900003E-04    4.8610748E-04
 -9.5850002E-04   -2.3448709E-04
 -9.5800002E-04   -9.7795133E-04
 -9.5750001E-04   -1.6950973E-03
 -9.5700001E-04   -2.3363002E-03
 -9.5650001E-04   -2.8549521E-03
 -9.5600000E-04   -3.2108366E-03
 -9.5550000E-04   -3.3731787E-03
 -9.5500000E-04   -3.3231401E-03
 -9.5449999E-04   -3.0555602E-03
 -9.5399999E-04   -2.5797966E-03
 -9.5349998E-04   -1.9195742E-03
 -9.5299998E-04   -1.1118258E-03
 -9.5249998E-04   -2.0457481E-04
 -9.5199997E-04    7.4601517E-04
 -9.5150003E-04    1.6792382E-03
 -9.5100002E-04    2.5338542E-03
 -9.5050002E-04    3.2522348E-03
 -9.5000002E-04    3.7843585E-03
 -9.4950001E-04    4.0913709E-03
 -9.4900001E-04    4.1484525E-03
 -9.4850000E-04    3.9467723E-03
 -9.4800000E-04    3.4943877E-03
 -9.4750000E-04    2.8159888E-03
 -9.4699999E-04    1.9515059E-03
 -9.4649999E-04    9.5364446E-04
 -9.4599999E-04   -1.1548646E-04
 -9.4549998E-04   -1.1884341E-03
 -9.4499998E-04   -2.1968717E-03
 -9.4449997E-04   -3.0761717E-03
 -9.4400003E-04   -3.7697663E-03
 -9.4350002E-04   -4.2329845E-03
 -9.4300002E-04   -4.4360985E-03
 -9.4250002E-04   -4.3663546E-03
 -9.4200001E-04   -4.0288502E-03
 -9.4150001E-04   -3.4461839E-03
 -9.4100001E-04   -2.6568980E-03
 -9.4050000E-04   -1.7128300E-03
 -9.4000000E-04   -6.7554909E-04
 -9.3949999E-04    3.8786611E-04
 -9.3899999E-04    1.4094085E-03
 -9.3849999E-04    2.3247586E-03
 -9.3799998E-04    3.0776062E-03
 -9.3749998E-04    3.6233731E-03
 -9.3699998E-04    3.9320718E-03
 -9.3649997E-04    3.9901044E-03
 -9.3600003E-04    3.8008816E-03
 -9.3550002E-04    3.3842269E-03
 -9.3500002E-04    2.7746256E-03
 -9.3450001E-04    2.0184575E-03
 -9.3400001E-04    1.1704345E-03
 -9.3350001E-04    2.8951484E-04
 -9.3300000E-04   -5.6539447E-04
 -9.3250000E-04   -1.3396214E-03
 -9.3200000E-04   -1.9864864E-03
 -9.3149999E-04   -2.4703580E-03
 -9.3099999E-04   -2.7687873E-03
 -9.3049998E-04   -2.8735760E-03
 -9.2999998E-04   -2.7907228E-03
 -9.2949998E-04   -2.5392724E-03
 -9.2899997E-04   -2.1491926E-03
 -9.2850003E-04   -1.6584689E-03
 -9.2800002E-04   -1.1096752E-03
 -9.2750002E-04   -5.4631475E-04
 -9.2700002E-04   -9.2450637E-06
 -9.2650001E-04    4.6651665E-04
 -9.2600001E-04    8.5434067E-04
 -9.2550000E-04    1.1376791E-03
 -9.2500000E-04    1.3107788E-03
 -9.2450000E-04    1.3783684E-03
 -9.2399999E-04    1.3543713E-03
 -9.2349999E-04    1.2597803E-03
 -9.2299999E-04    1.1199072E-03
 -9.2249998E-04    9.6128078E-04
 -9.2199998E-04    8.0849702E-04
 -9.2149997E-04    6.8133895E-04
 -9.2100003E-04    5.9245457E-04
 -9.2050002E-04    5.4584001E-04
 -9.2000002E-04    5.3629850E-04
 -9.1950002E-04    5.4995774E-04
 -9.1900001E-04    5.6582643E-04
 -9.1850001E-04    5.5827014E-04
 -9.1800001E-04    5.0018972E-04
 -9.1750000E-04    3.6660861E-04
 -9.1700000E-04    1.3832003E-04
 -9.1649999E-04   -1.9478067E-04
 -9.1599999E-04   -6.3104311E-04
 -9.1549999E-04   -1.1554108E-03
 -9.1499998E-04   -1.7390200E-03
 -9.1449998E-04   -2.3401934E-03
 -9.1399997E-04   -2.9068533E-03
 -9.1349997E-04   -3.3802474E-03
 -9.1300003E-04   -3.6997513E-03
 -9.1250002E-04   -3.8083976E-03
 -9.1200002E-04   -3.6586833E-03
 -9.1150001E-04   -3.2181568E-03
 -9.1100001E-04   -2.4742568E-03
 -9.1050001E-04   -1.4379114E-03
 -9.1000000E-04   -1.4546717E-04
 -9.0950000E-04    1.3413636E-03
 -9.0899999E-04    2.9377087E-03
 -9.0849999E-04    4.5398907E-03
 -9.0799999E-04    6.0317512E-03
 -9.0749998E-04    7.2925803E-03
 -9.0699998E-04    8.2061384E-03
 -9.0649998E-04    8.6701140E-03
 -9.0599997E-04    8.6053014E-03
 -9.0550003E-04    7.9637365E-03
 -9.0500002E-04    6.7350594E-03
 -9.0450002E-04    4.9504964E-03
 -9.0400001E-04    2.6839490E-03
 -9.0350001E-04    4.9926308E-05
 -9.0300001E-04   -2.8017499E-03
 -9.0250000E-04   -5.6942678E-03
 -9.0200000E-04   -8.4347455E-03
 -9.0150000E-04   -1.0827078E-02
 -9.0099999E-04   -1.2685870E-02
 -9.0049999E-04   -1.3850457E-02
 -8.9999998E-04   -1.4197989E-02
 -8.9949998E-04   -1.3654533E-02
 -8.9899998E-04   -1.2203265E-02
 -8.9849997E-04   -9.8889880E-03
 -8.9800003E-04   -6.8184431E-03
 -8.9750002E-04   -3.1561723E-03
 -8.9700002E-04    8.8398333E-04
 -8.9650002E-04    5.0513525E-03
 -8.9600001E-04    9.0741450E-03
 -8.9550001E-04    1.2677426E-02
 -8.9500000E-04    1.5602148E-02
 -8.9450000E-04    1.7623918E-02
 -8.9400000E-04    1.8570133E-02
 -8.9349999E-04    1.8334191E-02
 -8.9299999E-04    1.6885642E-02
 -8.9249999E-04    1.4275365E-02
 -8.9199998E-04    1.0635260E-02
 -8.9149998E-04    6.1722295E-03
 -8.9099997E-04    1.1566801E-03
 -8.9050003E-04   -4.0938226E-03
 -8.9000002E-04   -9.2347618E-03
 -8.8950002E-04   -1.3917435E-02
 -8.8900002E-04   -1.7812757E-02
 -8.8850001E-04   -2.0634441E-02
 -8.8800001E-04   -2.2159921E-02
 -8.8750001E-04   -2.2247456E-02
 -8.8700000E-04   -2.0848123E-02
 -8.8650000E-04   -1.8011691E-02
 -8.8599999E-04   -1.3885826E-02
 -8.8549999E-04   -8.7084929E-03
 -8.8499999E-04   -2.7938969E-03
 -8.8449998E-04    3.4871702E-03
 -8.8399998E-04    9.7313756E-03
 -8.8349998E-04    1.5529677E-02
 -8.8299997E-04    2.0495145E-02
 -8.8250003E-04    2.4289856E-02
 -8.8200002E-04    2.6648939E-02
 -8.8150002E-04    2.7400084E-02
 -8.8100001E-04    2.6477028E-02
 -8.8050001E-04    2.3925994E-02
 -8.8000001E-04    1.9904496E-02
 -8.7950000E-04    1.4672481E-02
 -8.7900000E-04    8.5762860E-03
 -8.7850000E-04    2.0264161E-03
 -8.7799999E-04   -4.5293854E-03
 -8.7749999E-04   -1.0635987E-02
 -8.7699998E-04   -1.5861588E-02
 -8.7649998E-04   -1.9827193E-02
 -8.7599998E-04   -2.2232767E-02
 -8.7549997E-04   -2.2878220E-02
 -8.7500003E-04   -2.1677710E-02
 -8.7450002E-04   -1.8666213E-02
 -8.7400002E-04   -1.3997817E-02
 -8.7350002E-04   -7.9358201E-03
 -8.7300001E-04   -8.3525688E-04
 -8.7250001E-04    6.8809795E-03
 -8.7200000E-04    1.4750768E-02
 -8.7150000E-04    2.2304175E-02
 -8.7100000E-04    2.9095437E-02
 -8.7049999E-04    3.4733310E-02
 -8.6999999E-04    3.8907576E-02
 -8.6949999E-04    4.1409940E-02
 -8.6899998E-04    4.2147677E-02
 -8.6849998E-04    4.1149277E-02
 -8.6799997E-04    3.8561463E-02
 -8.6750003E-04    3.4637991E-02
 -8.6700002E-04    2.9720955E-02
 -8.6650002E-04    2.4215976E-02
 -8.6600002E-04    1.8563077E-02
 -8.6550001E-04    1.3205346E-02
 -8.6500001E-04    8.5576614E-03
 -8.6450001E-04    4.9777394E-03
 -8.6400000E-04    2.7415804E-03
 -8.6350000E-04    2.0250594E-03
 -8.6299999E-04    2.8929696E-03
 -8.6249999E-04    5.2962438E-03
 -8.6199999E-04    9.0774857E-03
 -8.6149998E-04    1.3984324E-02
 -8.6099998E-04    1.9689517E-02
 -8.6049997E-04    2.5816234E-02
 -8.5999997E-04    3.1966593E-02
 -8.5950003E-04    3.7751239E-02
 -8.5900002E-04    4.2817779E-02
 -8.5850002E-04    4.6875909E-02
 -8.5800001E-04    4.9717382E-02
 -8.5750001E-04    5.1229406E-02
 -8.5700001E-04    5.1400527E-02
 -8.5650000E-04    5.0318666E-02
 -8.5600000E-04    4.8161648E-02
 -8.5549999E-04    4.5180999E-02
 -8.5499999E-04    4.1680515E-02
 -8.5449999E-04    3.7991311E-02
 -8.5399998E-04    3.4445424E-02
 -8.5349998E-04    3.1350091E-02
 -8.5299998E-04    2.8964764E-02
 -8.5249997E-04    2.7482674E-02
 -8.5200003E-04    2.7018322E-02
 -8.5150002E-04    2.7601827E-02
 -8.5100002E-04    2.9180454E-02
 -8.5050002E-04    3.1627033E-02
 -8.5000001E-04    3.4754429E-02
 -8.4950001E-04    3.8334690E-02
 -8.4900000E-04    4.2121172E-02
 -8.4850000E-04    4.5871608E-02
 -8.4800000E-04    4.9370140E-02
 -8.4749999E-04    5.2446276E-02
 -8.4699999E-04    5.4989226E-02
 -8.4649998E-04    5.6956243E-02
 -8.4599998E-04    5.8374312E-02
 -8.4549998E-04    5.9335042E-02
 -8.4499997E-04    5.9983198E-02
 -8.4450003E-04    6.0499985E-02
 -8.4400002E-04    6.1082527E-02
 -8.4350002E-04    6.1921518E-02
 -8.4300002E-04    6.3179038E-02
 -8.4250001E-04    6.4968728E-02
 -8.4200001E-04    6.7340158E-02
 -8.4150000E-04    7.0269048E-02
 -8.4100000E-04    7.3654443E-02
 -8.4050000E-04    7.7323273E-02
 -8.3999999E-04    8.1042267E-02
 -8.3949999E-04    8.4536336E-02
 -8.3899999E-04    8.7512091E-02
 -8.3849998E-04    8.9684501E-02
 -8.3799998E-04    9.0804584E-02
 -8.3749997E-04    9.0685591E-02
 -8.3700003E-04    8.9225367E-02
 -8.3650002E-04    8.6422756E-02
 -8.3600002E-04    8.2386307E-02
 -8.3550002E-04    7.7334218E-02
 -8.3500001E-04    7.1584985E-02
 -8.3450001E-04    6.5539181E-02
 -8.3400001E-04    5.9653372E-02
 -8.3350000E-04    5.4407977E-02
 -8.3300000E-04    5.0271317E-02
 -8.3249999E-04    4.7662701E-02
 -8.3199999E-04    4.6917308E-02
 -8.3149999E-04    4.8255842E-02
 -8.3099998E-04    5.1761489E-02
 -8.3049998E-04    5.7366300E-02
 -8.2999998E-04    6.4848468E-02
 -8.2949997E-04    7.3841102E-02
 -8.2900003E-04    8.3852373E-02
 -8.2850002E-04    9.4295777E-02
 -8.2800002E-04    0.1045288    
 -8.2750001E-04    0.1138971    
 -8.2700001E-04    0.1217815    
 -8.2650001E-04    0.1276442    
 -8.2600000E-04    0.1310700    
 -8.2550000E-04    0.1318014    
 -8.2500000E-04    0.1297620    
 -8.2449999E-04    0.1250687    
 -8.2399999E-04    0.1180300    
 -8.2349998E-04    0.1091300    
 -8.2299998E-04    9.9000536E-02
 -8.2249998E-04    8.8380560E-02
 -8.2199997E-04    7.8067981E-02
 -8.2150003E-04    6.8865187E-02
 -8.2100002E-04    6.1523020E-02
 -8.2050002E-04    5.6686860E-02
 -8.2000002E-04    5.4848656E-02
 -8.1950001E-04    5.6308467E-02
 -8.1900001E-04    6.1148375E-02
 -8.1850000E-04    6.9220960E-02
 -8.1800000E-04    8.0153354E-02
 -8.1750000E-04    9.3366988E-02
 -8.1699999E-04    0.1081119    
 -8.1649999E-04    0.1235137    
 -8.1599999E-04    0.1386299    
 -8.1549998E-04    0.1525119    
 -8.1499998E-04    0.1642694    
 -8.1449997E-04    0.1731308    
 -8.1400003E-04    0.1784981    
 -8.1350002E-04    0.1799895    
 -8.1300002E-04    0.1774696    
 -8.1250002E-04    0.1710621    
 -8.1200001E-04    0.1611464    
 -8.1150001E-04    0.1483358    
 -8.1100001E-04    0.1334404    
 -8.1050000E-04    0.1174164    
 -8.1000000E-04    0.1013040    
 -8.0949999E-04    8.6159810E-02
 -8.0899999E-04    7.2987422E-02
 -8.0849999E-04    6.2670261E-02
 -8.0799998E-04    5.5912532E-02
 -8.0749998E-04    5.3191509E-02
 -8.0699997E-04    5.4724932E-02
 -8.0649997E-04    6.0455676E-02
 -8.0600003E-04    7.0055030E-02
 -8.0550002E-04    8.2944430E-02
 -8.0500002E-04    9.8334230E-02
 -8.0450001E-04    0.1152771    
 -8.0400001E-04    0.1327321    
 -8.0350001E-04    0.1496357    
 -8.0300000E-04    0.1649737    
 -8.0250000E-04    0.1778504    
 -8.0200000E-04    0.1875491    
 -8.0149999E-04    0.1935800    
 -8.0099999E-04    0.1957119    
 -8.0049998E-04    0.1939866    
 -7.9999998E-04    0.1887126    
 -7.9949998E-04    0.1804410    
 -7.9899997E-04    0.1699240    
 -7.9850003E-04    0.1580591    
 -7.9800002E-04    0.1458235    
 -7.9750002E-04    0.1342036    
 -7.9700002E-04    0.1241240    
 -7.9650001E-04    0.1163816    
 -7.9600001E-04    0.1115905    
 -7.9550000E-04    0.1101406    
 -7.9500000E-04    0.1121728    
 -7.9450000E-04    0.1175739    
 -7.9399999E-04    0.1259901    
 -7.9349999E-04    0.1368586    
 -7.9299998E-04    0.1494542    
 -7.9249998E-04    0.1629483    
 -7.9199998E-04    0.1764735    
 -7.9149997E-04    0.1891916    
 -7.9100003E-04    0.2003567    
 -7.9050002E-04    0.2093703    
 -7.9000002E-04    0.2158239    
 -7.8950002E-04    0.2195249    
 -7.8900001E-04    0.2205048    
 -7.8850001E-04    0.2190091    
 -7.8800000E-04    0.2154692    
 -7.8750000E-04    0.2104604    
 -7.8700000E-04    0.2046474    
 -7.8649999E-04    0.1987245    
 -7.8599999E-04    0.1933535    
 -7.8549999E-04    0.1891063    
 -7.8499998E-04    0.1864156    
 -7.8449998E-04    0.1855395    
 -7.8399997E-04    0.1865417    
 -7.8350003E-04    0.1892898    
 -7.8300002E-04    0.1934717    
 -7.8250002E-04    0.1986283    
 -7.8200002E-04    0.2042000    
 -7.8150001E-04    0.2095831    
 -7.8100001E-04    0.2141901    
 -7.8050001E-04    0.2175098    
 -7.8000000E-04    0.2191614    
 -7.7950000E-04    0.2189361    
 -7.7899999E-04    0.2168251    
 -7.7849999E-04    0.2130288    
 -7.7799999E-04    0.2079466    
 -7.7749998E-04    0.2021490    
 -7.7699998E-04    0.1963319    
 -7.7649998E-04    0.1912588    
 -7.7599997E-04    0.1876945    
 -7.7550003E-04    0.1863362    
 -7.7500002E-04    0.1877477    
 -7.7450002E-04    0.1923028    
 -7.7400001E-04    0.2001436    
 -7.7350001E-04    0.2111558    
 -7.7300001E-04    0.2249656    
 -7.7250000E-04    0.2409583    
 -7.7200000E-04    0.2583164    
 -7.7150000E-04    0.2760774    
 -7.7099999E-04    0.2932035    
 -7.7049999E-04    0.3086607    
 -7.6999998E-04    0.3214993    
 -7.6949998E-04    0.3309301    
 -7.6899998E-04    0.3363894    
 -7.6849997E-04    0.3375889    
 -7.6800003E-04    0.3345438    
 -7.6750002E-04    0.3275786    
 -7.6700002E-04    0.3173093    
 -7.6650002E-04    0.3046024    
 -7.6600001E-04    0.2905141    
 -7.6550001E-04    0.2762145    
 -7.6500000E-04    0.2629019    
 -7.6450000E-04    0.2517145    
 -7.6400000E-04    0.2436450    
 -7.6349999E-04    0.2394668    
 -7.6299999E-04    0.2396746    
 -7.6249999E-04    0.2444470    
 -7.6199998E-04    0.2536318    
 -7.6149998E-04    0.2667560    
 -7.6099997E-04    0.2830598    
 -7.6050003E-04    0.3015520    
 -7.6000002E-04    0.3210819    
 -7.5950002E-04    0.3404240    
 -7.5900002E-04    0.3583671    
 -7.5850001E-04    0.3738025    
 -7.5800001E-04    0.3858050    
 -7.5750001E-04    0.3936991    
 -7.5700000E-04    0.3971082    
 -7.5650000E-04    0.3959807    
 -7.5599999E-04    0.3905935    
 -7.5549999E-04    0.3815312    
 -7.5499999E-04    0.3696437    
 -7.5449998E-04    0.3559846    
 -7.5399998E-04    0.3417361    
 -7.5349997E-04    0.3281245    
 -7.5299997E-04    0.3163336    
 -7.5250003E-04    0.3074211    
 -7.5200002E-04    0.3022448    
 -7.5150002E-04    0.3014025    
 -7.5100001E-04    0.3051915    
 -7.5050001E-04    0.3135875    
 -7.5000001E-04    0.3262478    
 -7.4950000E-04    0.3425350    
 -7.4900000E-04    0.3615621    
 -7.4850000E-04    0.3822538    
 -7.4799999E-04    0.4034212    
 -7.4749999E-04    0.4238442    
 -7.4699998E-04    0.4423561    
 -7.4649998E-04    0.4579242    
 -7.4599998E-04    0.4697220    