 -1.2000001E-03    1.0000000E-24
 -1.1995001E-03    1.0000000E-24
 -1.1990000E-03    1.0000000E-24
 -1.1985000E-03    1.0000000E-24
 -1.1980000E-03    1.0000000E-24
 -1.1975000E-03    1.0000000E-24
 -1.1970000E-03    1.0000000E-24
 -1.1965000E-03    1.0000000E-24
 -1.1960000E-03    1.0000000E-24
 -1.1955000E-03    1.0000001E-24
 -1.1950000E-03    1.0000002E-24
 -1.1945000E-03    1.0000002E-24
 -1.1940000E-03    1.0000002E-24
 -1.1935000E-03    1.0000002E-24
 -1.1930000E-03    1.0000002E-24
 -1.1925000E-03    1.0000002E-24
 -1.1920000E-03    1.0000003E-24
 -1.1915000E-03    1.0000007E-24
 -1.1910000E-03    1.0000033E-24
 -1.1905000E-03    1.0000164E-24
 -1.1900000E-03    1.0000758E-24
 -1.1895000E-03    1.0003153E-24
 -1.1890000E-03    1.0011946E-24
 -1.1885000E-03    1.0041637E-24
 -1.1880000E-03    1.0134703E-24
 -1.1875000E-03    1.0407421E-24
 -1.1870000E-03    1.1159047E-24
 -1.1865000E-03    1.3116870E-24
 -1.1860000E-03    1.7956330E-24
 -1.1854999E-03    2.9346622E-24
 -1.1849999E-03    5.4943866E-24
 -1.1845001E-03    1.0999281E-23
 -1.1840001E-03    2.2348540E-23
 -1.1835000E-03    4.4808426E-23
 -1.1830000E-03    8.7507046E-23
 -1.1825000E-03    1.6550668E-22
 -1.1820000E-03    3.0236246E-22
 -1.1815000E-03    5.3270300E-22
 -1.1810000E-03    9.0366412E-22
 -1.1805000E-03    1.4728186E-21
 -1.1800000E-03    2.2984227E-21
 -1.1795000E-03    3.4152490E-21
 -1.1790000E-03    4.7860436E-21
 -1.1785000E-03    6.2150821E-21
 -1.1780000E-03    7.2072400E-21
 -1.1775000E-03    6.7549322E-21
 -1.1770000E-03    3.0386926E-21
 -1.1765000E-03   -6.9614438E-21
 -1.1760000E-03   -2.7922764E-20
 -1.1755000E-03   -6.6642401E-20
 -1.1750000E-03   -1.3237891E-19
 -1.1745000E-03   -2.3685616E-19
 -1.1740000E-03   -3.9359764E-19
 -1.1735000E-03   -6.1612625E-19
 -1.1730000E-03   -9.1443276E-19
 -1.1725000E-03   -1.2890183E-18
 -1.1720000E-03   -1.7218026E-18
 -1.1715000E-03   -2.1633319E-18
 -1.1710000E-03   -2.5161048E-18
 -1.1704999E-03   -2.6145599E-18
 -1.1699999E-03   -2.2034261E-18
 -1.1695001E-03   -9.1779804E-19
 -1.1690001E-03    1.7295294E-18
 -1.1685000E-03    6.3453591E-18
 -1.1680000E-03    1.3627141E-17
 -1.1675000E-03    2.4294404E-17
 -1.1670000E-03    3.8965597E-17
 -1.1665000E-03    5.7965575E-17
 -1.1660000E-03    8.1052159E-17
 -1.1655000E-03    1.0705738E-16
 -1.1650000E-03    1.3345173E-16
 -1.1645000E-03    1.5585880E-16
 -1.1640000E-03    1.6757292E-16
 -1.1635000E-03    1.5916499E-16
 -1.1630000E-03    1.1829628E-16
 -1.1625000E-03    2.9897444E-17
 -1.1620000E-03   -1.2310021E-16
 -1.1615000E-03   -3.5827673E-16
 -1.1610000E-03   -6.9128085E-16
 -1.1605000E-03   -1.1322765E-15
 -1.1600000E-03   -1.6812099E-15
 -1.1595000E-03   -2.3219742E-15
 -1.1590000E-03   -3.0157543E-15
 -1.1585000E-03   -3.6941047E-15
 -1.1580000E-03   -4.2526327E-15
 -1.1575000E-03   -4.5465099E-15
 -1.1570000E-03   -4.3893650E-15
 -1.1565000E-03   -3.5573973E-15
 -1.1560000E-03   -1.8006840E-15
 -1.1555000E-03    1.1364226E-15
 -1.1549999E-03    5.4842728E-15
 -1.1544999E-03    1.1405489E-14
 -1.1540001E-03    1.8941530E-14
 -1.1535001E-03    2.7950302E-14
 -1.1530000E-03    3.8038925E-14
 -1.1525000E-03    4.8498213E-14
 -1.1520000E-03    5.8247908E-14
 -1.1515000E-03    6.5804208E-14
 -1.1510000E-03    6.9282938E-14
 -1.1505000E-03    6.6452831E-14
 -1.1500000E-03    5.4852637E-14
 -1.1495000E-03    3.1983717E-14
 -1.1490000E-03   -4.4153291E-15
 -1.1485000E-03   -5.6012568E-14
 -1.1480000E-03   -1.2345597E-13
 -1.1475000E-03   -2.0589915E-13
 -1.1470000E-03   -3.0051683E-13
 -1.1465000E-03   -4.0206220E-13
 -1.1460000E-03   -5.0253177E-13
 -1.1455000E-03   -5.9101427E-13
 -1.1450000E-03   -6.5380589E-13
 -1.1445000E-03   -6.7487080E-13
 -1.1440000E-03   -6.3671572E-13
 -1.1435000E-03   -5.2172145E-13
 -1.1430000E-03   -3.1393901E-13
 -1.1425000E-03   -1.3091609E-15
 -1.1420000E-03    4.2179753E-13
 -1.1415000E-03    9.5188701E-13
 -1.1410000E-03    1.5737331E-12
 -1.1405000E-03    2.2581533E-12
 -1.1399999E-03    2.9605216E-12
 -1.1394999E-03    3.6203900E-12
 -1.1390001E-03    4.1625952E-12
 -1.1385001E-03    4.5001594E-12
 -1.1380001E-03    4.5392162E-12
 -1.1375000E-03    4.1860374E-12
 -1.1370000E-03    3.3560290E-12
 -1.1365000E-03    1.9843541E-12
 -1.1360000E-03    3.7556668E-14
 -1.1355000E-03   -2.4746917E-12
 -1.1350000E-03   -5.4888451E-12
 -1.1345000E-03   -8.8790433E-12
 -1.1340000E-03   -1.2452387E-11
 -1.1335000E-03   -1.5949304E-11
 -1.1330000E-03   -1.9050241E-11
 -1.1325000E-03   -2.1389534E-11
 -1.1320000E-03   -2.2576897E-11
 -1.1315000E-03   -2.2226212E-11
 -1.1310000E-03   -1.9990636E-11
 -1.1305000E-03   -1.5602125E-11
 -1.1300000E-03   -8.9127239E-12
 -1.1295000E-03    6.5892299E-14
 -1.1290000E-03    1.1128550E-11
 -1.1285000E-03    2.3852717E-11
 -1.1280000E-03    3.7588824E-11
 -1.1275000E-03    5.1468454E-11
 -1.1270000E-03    6.4433167E-11
 -1.1265000E-03    7.5285195E-11
 -1.1260000E-03    8.2759612E-11
 -1.1255000E-03    8.5615300E-11
 -1.1250000E-03    8.2740169E-11
 -1.1244999E-03    7.3263499E-11
 -1.1239999E-03    5.6667091E-11
 -1.1235001E-03    3.2885045E-11
 -1.1230001E-03    2.3820800E-12
 -1.1225000E-03   -3.3799682E-11
 -1.1220000E-03   -7.4033848E-11
 -1.1215000E-03   -1.1614875E-10
 -1.1210000E-03   -1.5751477E-10
 -1.1205000E-03   -1.9517860E-10
 -1.1200000E-03   -2.2603810E-10
 -1.1195000E-03   -2.4704788E-10
 -1.1190000E-03   -2.5544067E-10
 -1.1185000E-03   -2.4894822E-10
 -1.1180000E-03   -2.2600283E-10
 -1.1175000E-03   -1.8590189E-10
 -1.1170000E-03   -1.2892026E-10
 -1.1165000E-03   -5.6358924E-11
 -1.1160000E-03    2.9474905E-11
 -1.1155000E-03    1.2535444E-10
 -1.1150000E-03    2.2727772E-10
 -1.1145000E-03    3.3065423E-10
 -1.1140000E-03    4.3051263E-10
 -1.1135000E-03    5.2170707E-10
 -1.1130000E-03    5.9909927E-10
 -1.1125000E-03    6.5769923E-10
 -1.1120000E-03    6.9275385E-10
 -1.1115000E-03    6.9978762E-10
 -1.1110000E-03    6.7460759E-10
 -1.1105000E-03    6.1330363E-10
 -1.1100000E-03    5.1228327E-10
 -1.1094999E-03    3.6838937E-10
 -1.1089999E-03    1.7914985E-10
 -1.1084999E-03   -5.6799052E-11
 -1.1080001E-03   -3.3909095E-10
 -1.1075001E-03   -6.6481159E-10
 -1.1070000E-03   -1.0275233E-09
 -1.1065000E-03   -1.4162128E-09
 -1.1060000E-03   -1.8142866E-09
 -1.1055000E-03   -2.1987816E-09
 -1.1050000E-03   -2.5399884E-09
 -1.1045000E-03   -2.8017000E-09
 -1.1040000E-03   -2.9422917E-09
 -1.1035000E-03   -2.9168015E-09
 -1.1030000E-03   -2.6801052E-09
 -1.1025000E-03   -2.1911919E-09
 -1.1020000E-03   -1.4184016E-09
 -1.1015000E-03   -3.4534686E-10
 -1.1010000E-03    1.0229235E-09
 -1.1005000E-03    2.6541112E-09
 -1.1000000E-03    4.4839221E-09
 -1.0995000E-03    6.4131842E-09
 -1.0990000E-03    8.3076284E-09
 -1.0985000E-03    1.0001066E-08
 -1.0980000E-03    1.1302520E-08
 -1.0975000E-03    1.2007588E-08
 -1.0970000E-03    1.1913961E-08
 -1.0965000E-03    1.0840569E-08
 -1.0960000E-03    8.6493150E-09
 -1.0955000E-03    5.2679057E-09
 -1.0950000E-03    7.1178136E-10
 -1.0945000E-03   -4.8971773E-09
 -1.0939999E-03   -1.1317690E-08
 -1.0934999E-03   -1.8184375E-08
 -1.0930001E-03   -2.5013543E-08
 -1.0925001E-03   -3.1221187E-08
 -1.0920000E-03   -3.6154010E-08
 -1.0915000E-03   -3.9133319E-08
 -1.0910000E-03   -3.9510223E-08
 -1.0905000E-03   -3.6729347E-08
 -1.0900000E-03   -3.0396748E-08
 -1.0895000E-03   -2.0346613E-08
 -1.0890000E-03   -6.7003141E-09
 -1.0885000E-03    1.0089055E-08
 -1.0880000E-03    2.9213499E-08
 -1.0875000E-03    4.9514369E-08
 -1.0870000E-03    6.9518677E-08
 -1.0865000E-03    8.7510003E-08
 -1.0860000E-03    1.0163368E-07
 -1.0855000E-03    1.1003292E-07
 -1.0850000E-03    1.1100883E-07
 -1.0845000E-03    1.0319420E-07
 -1.0840000E-03    8.5727685E-08
 -1.0835000E-03    5.8413004E-08
 -1.0830000E-03    2.1846374E-08
 -1.0825000E-03   -2.2504340E-08
 -1.0820000E-03   -7.2283491E-08
 -1.0815000E-03   -1.2430604E-07
 -1.0810000E-03   -1.7469712E-07
 -1.0805000E-03   -2.1911272E-07
 -1.0800000E-03   -2.5303501E-07
 -1.0795000E-03   -2.7212704E-07
 -1.0790000E-03   -2.7262516E-07
 -1.0784999E-03   -2.5173983E-07
 -1.0779999E-03   -2.0803127E-07
 -1.0775001E-03   -1.4172372E-07
 -1.0770001E-03   -5.4921934E-08
 -1.0765000E-03    4.8302422E-08
 -1.0760000E-03    1.6197983E-07
 -1.0755000E-03    2.7848276E-07
 -1.0750000E-03    3.8893816E-07
 -1.0745000E-03    4.8380002E-07
 -1.0740000E-03    5.5355338E-07
 -1.0735000E-03    5.8950531E-07
 -1.0730000E-03    5.8460671E-07
 -1.0725000E-03    5.3423742E-07
 -1.0720000E-03    4.3688192E-07
 -1.0715000E-03    2.9462578E-07
 -1.0710000E-03    1.1340707E-07
 -1.0705000E-03   -9.7026721E-08
 -1.0700000E-03   -3.2348703E-07
 -1.0695000E-03   -5.5004335E-07
 -1.0690000E-03   -7.5903034E-07
 -1.0685000E-03   -9.3231102E-07
 -1.0680000E-03   -1.0527142E-06
 -1.0675000E-03   -1.1055433E-06
 -1.0670000E-03   -1.0800331E-06
 -1.0665000E-03   -9.7062457E-07
 -1.0660000E-03   -7.7792896E-07
 -1.0655000E-03   -5.0926798E-07
 -1.0650000E-03   -1.7870153E-07
 -1.0645000E-03    1.9351059E-07
 -1.0640000E-03    5.8201789E-07
 -1.0634999E-03    9.5801931E-07
 -1.0629999E-03    1.2913403E-06
 -1.0625001E-03    1.5528053E-06
 -1.0620001E-03    1.7167288E-06
 -1.0615001E-03    1.7633154E-06
 -1.0610000E-03    1.6807534E-06
 -1.0605000E-03    1.4667949E-06
 -1.0600000E-03    1.1296374E-06
 -1.0595000E-03    6.8797880E-07
 -1.0590000E-03    1.7016929E-07
 -1.0585000E-03   -3.8752876E-07
 -1.0580000E-03   -9.4349167E-07
 -1.0575000E-03   -1.4539260E-06
 -1.0570000E-03   -1.8764628E-06
 -1.0565000E-03   -2.1738610E-06
 -1.0560000E-03   -2.3174923E-06
 -1.0555000E-03   -2.2902725E-06
 -1.0550000E-03   -2.0887383E-06
 -1.0545000E-03   -1.7240147E-06
 -1.0540000E-03   -1.2215148E-06
 -1.0535000E-03   -6.1930945E-07
 -1.0530000E-03    3.4761545E-08
 -1.0525000E-03    6.8704736E-07
 -1.0520000E-03    1.2828045E-06
 -1.0515000E-03    1.7712684E-06
 -1.0510000E-03    2.1106098E-06
 -1.0505000E-03    2.2722788E-06
 -1.0500000E-03    2.2442669E-06
 -1.0495000E-03    2.0328878E-06
 -1.0490000E-03    1.6627924E-06
 -1.0485000E-03    1.1750960E-06
 -1.0479999E-03    6.2367150E-07
 -1.0474999E-03    6.9861422E-08
 -1.0470001E-03   -4.2395939E-07
 -1.0465001E-03   -8.0137795E-07
 -1.0460000E-03   -1.0187914E-06
 -1.0455000E-03   -1.0513592E-06
 -1.0450000E-03   -8.9733186E-07
 -1.0445000E-03   -5.8013114E-07
 -1.0440000E-03   -1.4773293E-07
 -1.0435000E-03    3.3085453E-07
 -1.0430000E-03    7.7193647E-07
 -1.0425000E-03    1.0859097E-06
 -1.0420000E-03    1.1877818E-06
 -1.0415000E-03    1.0084746E-06
 -1.0410000E-03    5.0576074E-07
 -1.0405000E-03   -3.2640759E-07
 -1.0400000E-03   -1.4514052E-06
 -1.0395000E-03   -2.7873427E-06
 -1.0390000E-03   -4.2091742E-06
 -1.0385000E-03   -5.5558994E-06
 -1.0380000E-03   -6.6427865E-06
 -1.0375000E-03   -7.2780022E-06
 -1.0370000E-03   -7.2825123E-06
 -1.0365000E-03   -6.5116410E-06
 -1.0360000E-03   -4.8762872E-06
 -1.0355000E-03   -2.3616001E-06
 -1.0350000E-03    9.5914038E-07
 -1.0345000E-03    4.9174710E-06
 -1.0340000E-03    9.2511691E-06
 -1.0335000E-03    1.3615154E-05
 -1.0329999E-03    1.7602086E-05
 -1.0324999E-03    2.0771966E-05
 -1.0319999E-03    2.2689079E-05
 -1.0315001E-03    2.2963737E-05
 -1.0310001E-03    2.1295486E-05
 -1.0305000E-03    1.7513890E-05
 -1.0300000E-03    1.1612818E-05
 -1.0295000E-03    3.7741763E-06
 -1.0290000E-03   -5.6223666E-06
 -1.0285000E-03   -1.6006321E-05
 -1.0280000E-03   -2.6641354E-05
 -1.0275000E-03   -3.6668243E-05
 -1.0270000E-03   -4.5164074E-05
 -1.0265000E-03   -5.1214247E-05
 -1.0260000E-03   -5.3992495E-05
 -1.0255000E-03   -5.2842581E-05
 -1.0250000E-03   -4.7354806E-05
 -1.0245000E-03   -3.7429996E-05
 -1.0240000E-03   -2.3324008E-05
 -1.0235000E-03   -5.6668132E-06
 -1.0230000E-03    1.4548198E-05
 -1.0225000E-03    3.6006884E-05
 -1.0220000E-03    5.7148623E-05
 -1.0215000E-03    7.6269047E-05
 -1.0210000E-03    9.1645321E-05
 -1.0205000E-03    1.0167556E-04
 -1.0200000E-03    1.0502193E-04
 -1.0195000E-03    1.0074580E-04
 -1.0190000E-03    8.8422654E-05
 -1.0185000E-03    6.8225490E-05
 -1.0180000E-03    4.0966675E-05
 -1.0174999E-03    8.0911495E-06
 -1.0169999E-03   -2.8382727E-05
 -1.0165001E-03   -6.5974353E-05
 -1.0160001E-03   -1.0189927E-04
 -1.0155000E-03   -1.3326560E-04
 -1.0150000E-03   -1.5729546E-04
 -1.0145000E-03   -1.7155535E-04
 -1.0140000E-03   -1.7417684E-04
 -1.0135000E-03   -1.6404934E-04
 -1.0130000E-03   -1.4096651E-04
 -1.0125000E-03   -1.0571107E-04
 -1.0120000E-03   -6.0066635E-05
 -1.0115000E-03   -6.7501301E-06
 -1.0110000E-03    5.0735267E-05
 -1.0105000E-03    1.0832036E-04
 -1.0100000E-03    1.6165050E-04
 -1.0095000E-03    2.0640779E-04
 -1.0090000E-03    2.3865170E-04
 -1.0085000E-03    2.5515186E-04
 -1.0080000E-03    2.5368540E-04
 -1.0075000E-03    2.3327309E-04
 -1.0070000E-03    1.9433131E-04
 -1.0065000E-03    1.3872235E-04
 -1.0060000E-03    6.9693757E-05
 -1.0055000E-03   -8.2956094E-06
 -1.0050000E-03   -8.9854650E-05
 -1.0045000E-03   -1.6902787E-04
 -1.0040000E-03   -2.3972739E-04
 -1.0035000E-03   -2.9619780E-04
 -1.0030000E-03   -3.3347856E-04
 -1.0025000E-03   -3.4782692E-04
 -1.0019999E-03   -3.3706563E-04
 -1.0014999E-03   -3.0082444E-04
 -1.0010001E-03   -2.4065065E-04
 -1.0005001E-03   -1.5997514E-04
 -1.0000000E-03   -6.3928943E-05
 -9.9950004E-04    4.0980198E-05
 -9.9900004E-04    1.4731209E-04
 -9.9850004E-04    2.4722842E-04
 -9.9800003E-04    3.3307826E-04
 -9.9750003E-04    3.9799022E-04
 -9.9700002E-04    4.3642474E-04
 -9.9650002E-04    4.4464116E-04
 -9.9600002E-04    4.2103988E-04
 -9.9550001E-04    3.6634880E-04
 -9.9500001E-04    2.8363438E-04
 -9.9450001E-04    1.7813146E-04
 -9.9400000E-04    5.6900626E-05
 -9.9350000E-04   -7.1664334E-05
 -9.9299999E-04   -1.9844351E-04
 -9.9249999E-04   -3.1426683E-04
 -9.9199999E-04   -4.1060703E-04
 -9.9149998E-04   -4.8023474E-04
 -9.9099998E-04   -5.1778322E-04
 -9.9049998E-04   -5.2017672E-04
 -9.8999997E-04   -4.8688575E-04
 -9.8949997E-04   -4.1998792E-04
 -9.8899996E-04   -3.2402613E-04
 -9.8849996E-04   -2.0567466E-04
 -9.8799996E-04   -7.3237716E-05
 -9.8749995E-04    6.3979700E-05
 -9.8699995E-04    1.9637891E-04
 -9.8649994E-04    3.1479562E-04
 -9.8600006E-04    4.1119018E-04
 -9.8550005E-04    4.7924410E-04
 -9.8500005E-04    5.1481463E-04
 -9.8450005E-04    5.1621097E-04
 -9.8400004E-04    4.8427147E-04
 -9.8350004E-04    4.2223636E-04
 -9.8300003E-04    3.3543026E-04
 -9.8250003E-04    2.3078280E-04
 -9.8200003E-04    1.1623094E-04
 -9.8150002E-04    5.5699736E-08
 -9.8100002E-04   -1.0978853E-04
 -9.8050002E-04   -2.0629374E-04
 -9.8000001E-04   -2.8391401E-04
 -9.7950001E-04   -3.3893419E-04
 -9.7900000E-04   -3.6966213E-04
 -9.7850000E-04   -3.7643171E-04
 -9.7800000E-04   -3.6142187E-04
 -9.7749999E-04   -3.2831368E-04
 -9.7699999E-04   -2.8182287E-04
 -9.7649998E-04   -2.2715674E-04
 -9.7599998E-04   -1.6945133E-04
 -9.7549998E-04   -1.1324665E-04
 -9.7499997E-04   -6.2052764E-05
 -9.7450003E-04   -1.8051567E-05
 -9.7400002E-04    1.8035780E-05
 -9.7350002E-04    4.6902300E-05
 -9.7300002E-04    7.0434697E-05
 -9.7250001E-04    9.1342627E-05
 -9.7200001E-04    1.1267790E-04
 -9.7150001E-04    1.3729645E-04
 -9.7100000E-04    1.6732409E-04
 -9.7050000E-04    2.0368843E-04
 -9.6999999E-04    2.4577533E-04
 -9.6949999E-04    2.9125760E-04
 -9.6899999E-04    3.3612768E-04
 -9.6849998E-04    3.7494645E-04
 -9.6799998E-04    4.0129820E-04
 -9.6749997E-04    4.0841967E-04
 -9.6700003E-04    3.8995108E-04
 -9.6650003E-04    3.4074046E-04
 -9.6600002E-04    2.5762283E-04
 -9.6550002E-04    1.4009162E-04
 -9.6500001E-04   -9.2150985E-06
 -9.6450001E-04   -1.8427985E-04
 -9.6400001E-04   -3.7576933E-04
 -9.6350000E-04   -5.7141884E-04
 -9.6300000E-04   -7.5673201E-04
 -9.6249999E-04   -9.1596099E-04
 -9.6199999E-04   -1.0333040E-03
 -9.6149999E-04   -1.0942330E-03
 -9.6099998E-04   -1.0868476E-03
 -9.6049998E-04   -1.0031387E-03
 -9.5999998E-04   -8.4004918E-04
 -9.5949997E-04   -6.0022407E-04
 -9.5900003E-04   -2.9236492E-04
 -9.5850002E-04    6.8870613E-05
 -9.5800002E-04    4.6344995E-04
 -9.5750001E-04    8.6701423E-04
 -9.5700001E-04    1.2523436E-03
 -9.5650001E-04    1.5911517E-03
 -9.5600000E-04    1.8560897E-03
 -9.5550000E-04    2.0228198E-03
 -9.5500000E-04    2.0720025E-03
 -9.5449999E-04    1.9910401E-03
 -9.5399999E-04    1.7754346E-03
 -9.5349998E-04    1.4296361E-03
 -9.5299998E-04    9.6728990E-04
 -9.5249998E-04    4.1083735E-04
 -9.5199997E-04   -2.0953333E-04
 -9.5150003E-04   -8.5754122E-04
 -9.5100002E-04   -1.4929787E-03
 -9.5050002E-04   -2.0742568E-03
 -9.5000002E-04   -2.5611643E-03
 -9.4950001E-04   -2.9176534E-03
 -9.4900001E-04   -3.1144582E-03
 -9.4850000E-04   -3.1313552E-03
 -9.4800000E-04   -2.9588982E-03
 -9.4750000E-04   -2.5994843E-03
 -9.4699999E-04   -2.0676628E-03
 -9.4649999E-04   -1.3896343E-03
 -9.4599999E-04   -6.0195412E-04
 -9.4549998E-04    2.5049783E-04
 -9.4499998E-04    1.1171657E-03
 -9.4449997E-04    1.9449218E-03
 -9.4400003E-04    2.6814342E-03
 -9.4350002E-04    3.2785772E-03
 -9.4300002E-04    3.6956617E-03
 -9.4250002E-04    3.9022665E-03
 -9.4200001E-04    3.8804736E-03
 -9.4150001E-04    3.6263485E-03
 -9.4100001E-04    3.1505465E-03
 -9.4050000E-04    2.4779886E-03
 -9.4000000E-04    1.6466066E-03
 -9.3949999E-04    7.0521142E-04
 -9.3899999E-04   -2.8938855E-04
 -9.3849999E-04   -1.2758577E-03
 -9.3799998E-04   -2.1921762E-03
 -9.3749998E-04   -2.9796183E-03
 -9.3699998E-04   -3.5866115E-03
 -9.3649997E-04   -3.9722254E-03
 -9.3600003E-04   -4.1090539E-03
 -9.3550002E-04   -3.9852876E-03
 -9.3500002E-04   -3.6058309E-03
 -9.3450001E-04   -2.9923529E-03
 -9.3400001E-04   -2.1822508E-03
 -9.3350001E-04   -1.2265599E-03
 -9.3300000E-04   -1.8691558E-04
 -9.3250000E-04    8.6825935E-04
 -9.3200000E-04    1.8681173E-03
 -9.3149999E-04    2.7440293E-03
 -9.3099999E-04    3.4342122E-03
 -9.3049998E-04    3.8880350E-03
 -9.2999998E-04    4.0697097E-03
 -9.2949998E-04    3.9611054E-03
 -9.2899997E-04    3.5634628E-03
 -9.2850003E-04    2.8978710E-03
 -9.2800002E-04    2.0044197E-03
 -9.2750002E-04    9.4004784E-04
 -9.2700002E-04   -2.2481472E-04
 -9.2650001E-04   -1.4106276E-03
 -9.2600001E-04   -2.5338815E-03
 -9.2550000E-04   -3.5126775E-03
 -9.2500000E-04   -4.2723846E-03
 -9.2450000E-04   -4.7509861E-03
 -9.2399999E-04   -4.9037435E-03
 -9.2349999E-04   -4.7068377E-03
 -9.2299999E-04   -4.1596899E-03
 -9.2249998E-04   -3.2857799E-03
 -9.2199998E-04   -2.1318272E-03
 -9.2149997E-04   -7.6536700E-04
 -9.2100003E-04    7.2918634E-04
 -9.2050002E-04    2.2557494E-03
 -9.2000002E-04    3.7127365E-03
 -9.1950002E-04    4.9997824E-03
 -9.1900001E-04    6.0245679E-03
 -9.1850001E-04    6.7092795E-03
 -9.1800001E-04    6.9962358E-03
 -9.1750000E-04    6.8522808E-03
 -9.1700000E-04    6.2715886E-03
 -9.1649999E-04    5.2766711E-03
 -9.1599999E-04    3.9174571E-03
 -9.1549999E-04    2.2684897E-03
 -9.1499998E-04    4.2439808E-04
 -9.1449998E-04   -1.5060698E-03
 -9.1399997E-04   -3.4070441E-03
 -9.1349997E-04   -5.1630870E-03
 -9.1300003E-04   -6.6667721E-03
 -9.1250002E-04   -7.8257583E-03
 -9.1200002E-04   -8.5688503E-03
 -9.1150001E-04   -8.8506164E-03
 -9.1100001E-04   -8.6542368E-03
 -9.1050001E-04   -7.9923784E-03
 -9.1000000E-04   -6.9060405E-03
 -9.0950000E-04   -5.4614772E-03
 -9.0899999E-04   -3.7454262E-03
 -9.0849999E-04   -1.8590165E-03
 -9.0799999E-04    8.9187954E-05
 -9.0749998E-04    1.9904817E-03
 -9.0699998E-04    3.7431098E-03
 -9.0649998E-04    5.2586356E-03
 -9.0599997E-04    6.4671356E-03
 -9.0550003E-04    7.3208627E-03
 -9.0500002E-04    7.7961520E-03
 -9.0450002E-04    7.8934915E-03
 -9.0400001E-04    7.6358211E-03
 -9.0350001E-04    7.0652715E-03
 -9.0300001E-04    6.2386687E-03
 -9.0250000E-04    5.2222321E-03
 -9.0200000E-04    4.0859408E-03
 -9.0150000E-04    2.8980523E-03
 -9.0099999E-04    1.7202360E-03
 -9.0049999E-04    6.0370611E-04
 -8.9999998E-04   -4.1336150E-04
 -8.9949998E-04   -1.3069714E-03
 -8.9899998E-04   -2.0669927E-03
 -8.9849997E-04   -2.6955027E-03
 -8.9800003E-04   -3.2040405E-03
 -8.9750002E-04   -3.6101050E-03
 -8.9700002E-04   -3.9333180E-03
 -8.9650002E-04   -4.1916803E-03
 -8.9600001E-04   -4.3983371E-03
 -8.9550001E-04   -4.5592170E-03
 -8.9500000E-04   -4.6718023E-03
 -8.9450000E-04   -4.7251782E-03
 -8.9400000E-04   -4.7013634E-03
 -8.9349999E-04   -4.5777936E-03
 -8.9299999E-04   -4.3306947E-03
 -8.9249999E-04   -3.9389823E-03
 -8.9199998E-04   -3.3882624E-03
 -8.9149998E-04   -2.6744583E-03
 -8.9099997E-04   -1.8066393E-03
 -8.9050003E-04   -8.0866041E-04
 -8.9000002E-04    2.8065444E-04
 -8.8950002E-04    1.4089282E-03
 -8.8900002E-04    2.5132291E-03
 -8.8850001E-04    3.5244774E-03
 -8.8800001E-04    4.3729343E-03
 -8.8750001E-04    4.9943263E-03
 -8.8700000E-04    5.3360583E-03
 -8.8650000E-04    5.3629391E-03
 -8.8599999E-04    5.0618458E-03
 -8.8549999E-04    4.4448189E-03
 -8.8499999E-04    3.5501898E-03
 -8.8449998E-04    2.4415082E-03
 -8.8399998E-04    1.2042040E-03
 -8.8349998E-04   -5.9867136E-05
 -8.8299997E-04   -1.2396669E-03
 -8.8250003E-04   -2.2234882E-03
 -8.8200002E-04   -2.9081008E-03
 -8.8150002E-04   -3.2077914E-03
 -8.8100001E-04   -3.0625348E-03
 -8.8050001E-04   -2.4445727E-03
 -8.8000001E-04   -1.3627653E-03
 -8.7950000E-04    1.3575137E-04
 -8.7900000E-04    1.9668839E-03
 -8.7850000E-04    4.0139160E-03
 -8.7799999E-04    6.1346628E-03
 -8.7749999E-04    8.1710108E-03
 -8.7699998E-04    9.9602044E-03
 -8.7649998E-04    1.1347075E-02
 -8.7599998E-04    1.2196306E-02
 -8.7549997E-04    1.2403790E-02
 -8.7500003E-04    1.1906164E-02
 -8.7450002E-04    1.0687747E-02
 -8.7400002E-04    8.7842336E-03
 -8.7350002E-04    6.2827640E-03
 -8.7300001E-04    3.3182288E-03
 -8.7250001E-04    6.5958564E-05
 -8.7200000E-04   -3.2687827E-03
 -8.7150000E-04   -6.4638406E-03
 -8.7100000E-04   -9.2948703E-03
 -8.7049999E-04   -1.1550688E-02
 -8.6999999E-04   -1.3048192E-02
 -8.6949999E-04   -1.3645777E-02
 -8.6899998E-04   -1.3254256E-02
 -8.6849998E-04   -1.1844471E-02
 -8.6799997E-04   -9.4509730E-03
 -8.6750003E-04   -6.1714421E-03
 -8.6700002E-04   -2.1618018E-03
 -8.6650002E-04    2.3727152E-03
 -8.6600002E-04    7.1900114E-03
 -8.6550001E-04    1.2026280E-02
 -8.6500001E-04    1.6612887E-02
 -8.6450001E-04    2.0693861E-02
 -8.6400000E-04    2.4042796E-02
 -8.6350000E-04    2.6478052E-02
 -8.6299999E-04    2.7875168E-02
 -8.6249999E-04    2.8175645E-02
 -8.6199999E-04    2.7391434E-02
 -8.6149998E-04    2.5604822E-02
 -8.6099998E-04    2.2963595E-02
 -8.6049997E-04    1.9671788E-02
 -8.5999997E-04    1.5976563E-02
 -8.5950003E-04    1.2152027E-02
 -8.5900002E-04    8.4810378E-03
 -8.5850002E-04    5.2361451E-03
 -8.5800001E-04    2.6609444E-03
 -8.5750001E-04    9.5306954E-04
 -8.5700001E-04    2.4998019E-04
 -8.5650000E-04    6.1853242E-04
 -8.5600000E-04    2.0490955E-03
 -8.5549999E-04    4.4546900E-03
 -8.5499999E-04    7.6753106E-03
 -8.5449999E-04    1.1487261E-02
 -8.5399998E-04    1.5617001E-02
 -8.5349998E-04    1.9758698E-02
 -8.5299998E-04    2.3594415E-02
 -8.5249997E-04    2.6815701E-02
 -8.5200003E-04    2.9145151E-02
 -8.5150002E-04    3.0356554E-02
 -8.5100002E-04    3.0292263E-02
 -8.5050002E-04    2.8876528E-02
 -8.5000001E-04    2.6123848E-02
 -8.4950001E-04    2.2141589E-02
 -8.4900000E-04    1.7126556E-02
 -8.4850000E-04    1.1355531E-02
 -8.4800000E-04    5.1702298E-03
 -8.4749999E-04   -1.0425394E-03
 -8.4699999E-04   -6.8743401E-03
 -8.4649998E-04   -1.1920790E-02
 -8.4599998E-04   -1.5807834E-02
 -8.4549998E-04   -1.8216912E-02
 -8.4499997E-04   -1.8907348E-02
 -8.4450003E-04   -1.7734392E-02
 -8.4400002E-04   -1.4661600E-02
 -8.4350002E-04   -9.7666178E-03
 -8.4300002E-04   -3.2397590E-03
 -8.4250001E-04    4.6246937E-03
 -8.4200001E-04    1.3444093E-02
 -8.4150000E-04    2.2769082E-02
 -8.4100000E-04    3.2110017E-02
 -8.4050000E-04    4.0966544E-02
 -8.3999999E-04    4.8858438E-02
 -8.3949999E-04    5.5355683E-02
 -8.3899999E-04    6.0105845E-02
 -8.3849998E-04    6.2856846E-02
 -8.3799998E-04    6.3473582E-02
 -8.3749997E-04    6.1947189E-02
 -8.3700003E-04    5.8396261E-02
 -8.3650002E-04    5.3059850E-02
 -8.3600002E-04    4.6282668E-02
 -8.3550002E-04    3.8493317E-02
 -8.3500001E-04    3.0177113E-02
 -8.3450001E-04    2.1845123E-02
 -8.3400001E-04    1.4001614E-02
 -8.3350000E-04    7.1120155E-03
 -8.3300000E-04    1.5735552E-03
 -8.3249999E-04   -2.3094327E-03
 -8.3199999E-04   -4.3439227E-03
 -8.3149999E-04   -4.4591064E-03
 -8.3099998E-04   -2.7091263E-03
 -8.3049998E-04    7.3248113E-04
 -8.2999998E-04    5.5861603E-03
 -8.2949997E-04    1.1486525E-02
 -8.2900003E-04    1.8007880E-02
 -8.2850002E-04    2.4693275E-02
 -8.2800002E-04    3.1085009E-02
 -8.2750001E-04    3.6754522E-02
 -8.2700001E-04    4.1329633E-02
 -8.2650001E-04    4.4517327E-02
 -8.2600000E-04    4.6120670E-02
 -8.2550000E-04    4.6048891E-02
 -8.2500000E-04    4.4320147E-02
 -8.2449999E-04    4.1057069E-02
 -8.2399999E-04    3.6475617E-02
 -8.2349998E-04    3.0868394E-02
 -8.2299998E-04    2.4583668E-02
 -8.2249998E-04    1.8001866E-02
 -8.2199997E-04    1.1511223E-02
 -8.2150003E-04    5.4842951E-03
 -8.2100002E-04    2.5689616E-04
 -8.2050002E-04   -3.8892515E-03
 -8.2000002E-04   -6.7392536E-03
 -8.1950001E-04   -8.1526535E-03
 -8.1900001E-04   -8.0658244E-03
 -8.1850000E-04   -6.4894836E-03
 -8.1800000E-04   -3.5019922E-03
 -8.1750000E-04    7.6060265E-04
 -8.1699999E-04    6.1166682E-03
 -8.1649999E-04    1.2352050E-02
 -8.1599999E-04    1.9232985E-02
 -8.1549998E-04    2.6517881E-02
 -8.1499998E-04    3.3967227E-02
 -8.1449997E-04    4.1351188E-02
 -8.1400003E-04    4.8454739E-02
 -8.1350002E-04    5.5080507E-02
 -8.1300002E-04    6.1049722E-02
 -8.1250002E-04    6.6201933E-02
 -8.1200001E-04    7.0394181E-02
 -8.1150001E-04    7.3500417E-02
 -8.1100001E-04    7.5411819E-02
 -8.1050000E-04    7.6038457E-02
 -8.1000000E-04    7.5312644E-02
 -8.0949999E-04    7.3193938E-02
 -8.0899999E-04    6.9675416E-02
 -8.0849999E-04    6.4790726E-02
 -8.0799998E-04    5.8621015E-02
 -8.0749998E-04    5.1300790E-02
 -8.0699997E-04    4.3021735E-02
 -8.0649997E-04    3.4033451E-02
 -8.0600003E-04    2.4640370E-02
 -8.0550002E-04    1.5194269E-02
 -8.0500002E-04    6.0822461E-03
 -8.0450001E-04   -2.2896416E-03
 -8.0400001E-04   -9.5164385E-03
 -8.0350001E-04   -1.5216984E-02
 -8.0300000E-04   -1.9057866E-02
 -8.0250000E-04   -2.0776965E-02
 -8.0200000E-04   -2.0204794E-02
 -8.0149999E-04   -1.7281909E-02
 -8.0099999E-04   -1.2070682E-02
 -8.0049998E-04   -4.7601666E-03
 -7.9999998E-04    4.3368777E-03
 -7.9949998E-04    1.4795193E-02
 -7.9899997E-04    2.6096243E-02
 -7.9850003E-04    3.7654661E-02
 -7.9800002E-04    4.8850529E-02
 -7.9750002E-04    5.9065636E-02
 -7.9700002E-04    6.7721397E-02
 -7.9650001E-04    7.4316032E-02
 -7.9600001E-04    7.8458272E-02
 -7.9550000E-04    7.9895459E-02
 -7.9500000E-04    7.8533560E-02
 -7.9450000E-04    7.4447803E-02
 -7.9399999E-04    6.7882657E-02
 -7.9349999E-04    5.9240922E-02
 -7.9299998E-04    4.9062386E-02
 -7.9249998E-04    3.7993088E-02
 -7.9199998E-04    2.6747128E-02
 -7.9149997E-04    1.6063245E-02
 -7.9100003E-04    6.6590966E-03
 -7.9050002E-04   -8.1392960E-04
 -7.9000002E-04   -5.8123129E-03
 -7.8950002E-04   -7.9356572E-03
 -7.8900001E-04   -6.9532325E-03
 -7.8850001E-04   -2.8199931E-03
 -7.8800000E-04    4.3190392E-03
 -7.8750000E-04    1.4136359E-02
 -7.8700000E-04    2.6141064E-02
 -7.8649999E-04    3.9708216E-02
 -7.8599999E-04    5.4116566E-02
 -7.8549999E-04    6.8592146E-02
 -7.8499998E-04    8.2354926E-02
 -7.8449998E-04    9.4665498E-02
 -7.8399997E-04    0.1048688    
 -7.8350003E-04    0.1124320    
 -7.8300002E-04    0.1169747    
 -7.8250002E-04    0.1182884    
 -7.8200002E-04    0.1163463    
 -7.8150001E-04    0.1113006    
 -7.8100001E-04    0.1034695    
 -7.8050001E-04    9.3314283E-02
 -7.8000000E-04    8.1408516E-02
 -7.7950000E-04    6.8400882E-02
 -7.7899999E-04    5.4975182E-02
 -7.7849999E-04    4.1809425E-02
 -7.7799999E-04    2.9536959E-02
 -7.7749998E-04    1.8711966E-02
 -7.7699998E-04    9.7813578E-03
 -7.7649998E-04    3.0646285E-03
 -7.7599997E-04   -1.2573962E-03
 -7.7550003E-04   -3.1446139E-03
 -7.7500002E-04   -2.6907839E-03
 -7.7450002E-04   -1.0865270E-04
 -7.7400001E-04    4.2915600E-03
 -7.7350001E-04    1.0128555E-02
 -7.7300001E-04    1.6979214E-02
 -7.7250000E-04    2.4408625E-02
 -7.7200000E-04    3.1998836E-02
 -7.7150000E-04    3.9374441E-02
 -7.7099999E-04    4.6223454E-02
 -7.7049999E-04    5.2312348E-02
 -7.6999998E-04    5.7494476E-02
 -7.6949998E-04    6.1711725E-02
 -7.6899998E-04    6.4989649E-02
 -7.6849997E-04    6.7426778E-02
 -7.6800003E-04    6.9179177E-02
 -7.6750002E-04    7.0441611E-02
 -7.6700002E-04    7.1426861E-02
 -7.6650002E-04    7.2344802E-02
 -7.6600001E-04    7.3382832E-02
 -7.6550001E-04    7.4688971E-02
 -7.6500000E-04    7.6358914E-02
 -7.6450000E-04    7.8427888E-02
 -7.6400000E-04    8.0867767E-02
 -7.6349999E-04    8.3589606E-02
 -7.6299999E-04    8.6451314E-02
 -7.6249999E-04    8.9269854E-02
 -7.6199998E-04    9.1837041E-02
 -7.6149998E-04    9.3937606E-02
 -7.6099997E-04    9.5368408E-02
 -7.6050003E-04    9.5957078E-02
 -7.6000002E-04    9.5578879E-02
 -7.5950002E-04    9.4170347E-02
 -7.5900002E-04    9.1738597E-02
 -7.5850001E-04    8.8365592E-02
 -7.5800001E-04    8.4206700E-02
 -7.5750001E-04    7.9483636E-02
 -7.5700000E-04    7.4471913E-02
 -7.5650000E-04    6.9483697E-02
 -7.5599999E-04    6.4846992E-02
 -7.5549999E-04    6.0882598E-02
 -7.5499999E-04    5.7880450E-02
 -7.5449998E-04    5.6077037E-02
 -7.5399998E-04    5.5635646E-02
 -7.5349997E-04    5.6631025E-02
 -7.5299997E-04    5.9039794E-02
 -7.5250003E-04    6.2737681E-02
 -7.5200002E-04    6.7504071E-02
 -7.5150002E-04    7.3033921E-02
 -7.5100001E-04    7.8956597E-02
 -7.5050001E-04    8.4860466E-02
 -7.5000001E-04    9.0321824E-02
 -7.4950000E-04    9.4936125E-02
 -7.4900000E-04    9.8349318E-02
 -7.4850000E-04    0.1002869    
 -7.4799999E-04    0.1005784    
 -7.4749999E-04    9.9175207E-02
 -7.4699998E-04    9.6159935E-02
 -7.4649998E-04    9.1746427E-02
 -7.4599998E-04    8.6269677E-02