 -1.2000001E-03    1.0000000E-24
 -1.1995001E-03    1.0000000E-24
 -1.1990000E-03    1.0000000E-24
 -1.1985000E-03    1.0000000E-24
 -1.1980000E-03    1.0000000E-24
 -1.1975000E-03    1.0000000E-24
 -1.1970000E-03    1.0000000E-24
 -1.1965000E-03    5.7629934E-18
 -1.1960000E-03    7.9661549E-17
 -1.1955000E-03    5.7990321E-16
 -1.1950000E-03    2.9493759E-15
 -1.1945000E-03    1.1732678E-14
 -1.1940000E-03    3.8745079E-14
 -1.1935000E-03    1.1004944E-13
 -1.1930000E-03    2.7483826E-13
 -1.1925000E-03    6.1140773E-13
 -1.1920000E-03    1.2180703E-12
 -1.1915000E-03    2.1655028E-12
 -1.1910000E-03    3.3723506E-12
 -1.1905000E-03    4.3507125E-12
 -1.1900000E-03    3.7580950E-12
 -1.1895000E-03   -1.3035957E-12
 -1.1890000E-03   -1.6272100E-11
 -1.1885000E-03   -5.0355022E-11
 -1.1880000E-03   -1.1785506E-10
 -1.1875000E-03   -2.3927438E-10
 -1.1870000E-03   -4.4167636E-10
 -1.1865000E-03   -7.5756140E-10
 -1.1860000E-03   -1.2213232E-09
 -1.1854999E-03   -1.8622596E-09
 -1.1849999E-03   -2.6932008E-09
 -1.1845001E-03   -3.6941743E-09
 -1.1840001E-03   -4.7912403E-09
 -1.1835000E-03   -5.8317173E-09
 -1.1830000E-03   -6.5585106E-09
 -1.1825000E-03   -6.5880075E-09
 -1.1820000E-03   -5.3978484E-09
 -1.1815000E-03   -2.3325013E-09
 -1.1810000E-03    3.3644620E-09
 -1.1805000E-03    1.2482602E-08
 -1.1800000E-03    2.5734314E-08
 -1.1795000E-03    4.3598632E-08
 -1.1790000E-03    6.6121750E-08
 -1.1785000E-03    9.2684935E-08
 -1.1780000E-03    1.2176042E-07
 -1.1775000E-03    1.5068662E-07
 -1.1770000E-03    1.7550403E-07
 -1.1765000E-03    1.9090170E-07
 -1.1760000E-03    1.9032741E-07
 -1.1755000E-03    1.6631230E-07
 -1.1750000E-03    1.1104996E-07
 -1.1745000E-03    1.7249139E-08
 -1.1740000E-03   -1.2075040E-07
 -1.1735000E-03   -3.0564931E-07
 -1.1730000E-03   -5.3574240E-07
 -1.1725000E-03   -8.0349821E-07
 -1.1720000E-03   -1.0943508E-06
 -1.1715000E-03   -1.3859242E-06
 -1.1710000E-03   -1.6479235E-06
 -1.1704999E-03   -1.8429170E-06
 -1.1699999E-03   -1.9281902E-06
 -1.1695001E-03   -1.8587766E-06
 -1.1690001E-03   -1.5916544E-06
 -1.1685000E-03   -1.0909625E-06
 -1.1680000E-03   -3.3391902E-07
 -1.1675000E-03    6.8303581E-07
 -1.1670000E-03    1.9385054E-06
 -1.1665000E-03    3.3815634E-06
 -1.1660000E-03    4.9291475E-06
 -1.1655000E-03    6.4662036E-06
 -1.1650000E-03    7.8492449E-06
 -1.1645000E-03    8.9137566E-06
 -1.1640000E-03    9.4855659E-06
 -1.1635000E-03    9.3958515E-06
 -1.1630000E-03    8.4990224E-06
 -1.1625000E-03    6.6921948E-06
 -1.1620000E-03    3.9345387E-06
 -1.1615000E-03    2.6444209E-07
 -1.1610000E-03   -4.1877784E-06
 -1.1605000E-03   -9.1938464E-06
 -1.1600000E-03   -1.4430123E-05
 -1.1595000E-03   -1.9490260E-05
 -1.1590000E-03   -2.3908466E-05
 -1.1585000E-03   -2.7192975E-05
 -1.1580000E-03   -2.8868122E-05
 -1.1575000E-03   -2.8522169E-05
 -1.1570000E-03   -2.5856974E-05
 -1.1565000E-03   -2.0734722E-05
 -1.1560000E-03   -1.3216330E-05
 -1.1555000E-03   -3.5863047E-06
 -1.1549999E-03    7.6407850E-06
 -1.1544999E-03    1.9735673E-05
 -1.1540001E-03    3.1793446E-05
 -1.1535001E-03    4.2795709E-05
 -1.1530000E-03    5.1692899E-05
 -1.1525000E-03    5.7500940E-05
 -1.1520000E-03    5.9404247E-05
 -1.1515000E-03    5.6855064E-05
 -1.1510000E-03    4.9658054E-05
 -1.1505000E-03    3.8029168E-05
 -1.1500000E-03    2.2618970E-05
 -1.1495000E-03    4.4931589E-06
 -1.1490000E-03   -1.4933282E-05
 -1.1485000E-03   -3.4007197E-05
 -1.1480000E-03   -5.0987299E-05
 -1.1475000E-03   -6.4221582E-05
 -1.1470000E-03   -7.2335701E-05
 -1.1465000E-03   -7.4412557E-05
 -1.1460000E-03   -7.0141243E-05
 -1.1455000E-03   -5.9914139E-05
 -1.1450000E-03   -4.4853714E-05
 -1.1445000E-03   -2.6756090E-05
 -1.1440000E-03   -7.9462015E-06
 -1.1435000E-03    8.9511659E-06
 -1.1430000E-03    2.1309657E-05
 -1.1425000E-03    2.6843803E-05
 -1.1420000E-03    2.3961558E-05
 -1.1415000E-03    1.2086271E-05
 -1.1410000E-03   -8.0953123E-06
 -1.1405000E-03   -3.4500645E-05
 -1.1399999E-03   -6.3669409E-05
 -1.1394999E-03   -9.0955073E-05
 -1.1390001E-03   -1.1089649E-04
 -1.1385001E-03   -1.1775675E-04
 -1.1380001E-03   -1.0619498E-04
 -1.1375000E-03   -7.2016192E-05
 -1.1370000E-03   -1.2926388E-05
 -1.1365000E-03    7.0792441E-05
 -1.1360000E-03    1.7577762E-04
 -1.1355000E-03    2.9533773E-04
 -1.1350000E-03    4.1953297E-04
 -1.1345000E-03    5.3563144E-04
 -1.1340000E-03    6.2895607E-04
 -1.1335000E-03    6.8409595E-04
 -1.1330000E-03    6.8641437E-04
 -1.1325000E-03    6.2374113E-04
 -1.1320000E-03    4.8810261E-04
 -1.1315000E-03    2.7731332E-04
 -1.1310000E-03   -3.7579632E-06
 -1.1305000E-03   -3.4242924E-04
 -1.1300000E-03   -7.1811152E-04
 -1.1295000E-03   -1.1029924E-03
 -1.1290000E-03   -1.4635469E-03
 -1.1285000E-03   -1.7628490E-03
 -1.1280000E-03   -1.9635749E-03
 -1.1275000E-03   -2.0314988E-03
 -1.1270000E-03   -1.9392130E-03
 -1.1265000E-03   -1.6697391E-03
 -1.1260000E-03   -1.2196626E-03
 -1.1255000E-03   -6.0142484E-04
 -1.1250000E-03    1.5556354E-04
 -1.1244999E-03    1.0052543E-03
 -1.1239999E-03    1.8868953E-03
 -1.1235001E-03    2.7285912E-03
 -1.1230001E-03    3.4523667E-03
 -1.1225000E-03    3.9804387E-03
 -1.1220000E-03    4.2422684E-03
 -1.1215000E-03    4.1818214E-03
 -1.1210000E-03    3.7643954E-03
 -1.1205000E-03    2.9823196E-03
 -1.1200000E-03    1.8588793E-03
 -1.1195000E-03    4.4989283E-04
 -1.1190000E-03   -1.1574684E-03
 -1.1185000E-03   -2.8488119E-03
 -1.1180000E-03   -4.4895583E-03
 -1.1175000E-03   -5.9345509E-03
 -1.1170000E-03   -7.0396350E-03
 -1.1165000E-03   -7.6743788E-03
 -1.1160000E-03   -7.7348873E-03
 -1.1155000E-03   -7.1555823E-03
 -1.1150000E-03   -5.9187715E-03
 -1.1145000E-03   -4.0609534E-03
 -1.1140000E-03   -1.6749603E-03
 -1.1135000E-03    1.0926265E-03
 -1.1130000E-03    4.0490064E-03
 -1.1125000E-03    6.9674123E-03
 -1.1120000E-03    9.6034231E-03
 -1.1115000E-03    1.1714248E-02
 -1.1110000E-03    1.3079536E-02
 -1.1105000E-03    1.3522012E-02
 -1.1100000E-03    1.2926094E-02
 -1.1094999E-03    1.1252718E-02
 -1.1089999E-03    8.5487412E-03
 -1.1084999E-03    4.9497001E-03
 -1.1080001E-03    6.7516521E-04
 -1.1075001E-03   -3.9834543E-03
 -1.1070000E-03   -8.6821420E-03
 -1.1065000E-03   -1.3049372E-02
 -1.1060000E-03   -1.6715292E-02
 -1.1055000E-03   -1.9342752E-02
 -1.1050000E-03   -2.0657564E-02
 -1.1045000E-03   -2.0475375E-02
 -1.1040000E-03   -1.8722547E-02
 -1.1035000E-03   -1.5448902E-02
 -1.1030000E-03   -1.0830687E-02
 -1.1025000E-03   -5.1629920E-03
 -1.1020000E-03    1.1584191E-03
 -1.1015000E-03    7.6648020E-03
 -1.1010000E-03    1.3849828E-02
 -1.1005000E-03    1.9209994E-02
 -1.1000000E-03    2.3286812E-02
 -1.0995000E-03    2.5707200E-02
 -1.0990000E-03    2.6218476E-02
 -1.0985000E-03    2.4714660E-02
 -1.0980000E-03    2.1251382E-02
 -1.0975000E-03    1.6047578E-02
 -1.0970000E-03    9.4732419E-03
 -1.0965000E-03    2.0237213E-03
 -1.0960000E-03   -5.7177930E-03
 -1.0955000E-03   -1.3126754E-02
 -1.0950000E-03   -1.9589014E-02
 -1.0945000E-03   -2.4553519E-02
 -1.0939999E-03   -2.7581312E-02
 -1.0934999E-03   -2.8386446E-02
 -1.0930001E-03   -2.6864870E-02
 -1.0925001E-03   -2.3108322E-02
 -1.0920000E-03   -1.7401537E-02
 -1.0915000E-03   -1.0202383E-02
 -1.0910000E-03   -2.1062414E-03
 -1.0905000E-03    6.2027778E-03
 -1.0900000E-03    1.4009802E-02
 -1.0895000E-03    2.0631438E-02
 -1.0890000E-03    2.5476877E-02
 -1.0885000E-03    2.8102301E-02
 -1.0880000E-03    2.8253589E-02
 -1.0875000E-03    2.5893064E-02
 -1.0870000E-03    2.1207534E-02
 -1.0865000E-03    1.4596295E-02
 -1.0860000E-03    6.6397362E-03
 -1.0855000E-03   -1.9491856E-03
 -1.0850000E-03   -1.0386610E-02
 -1.0845000E-03   -1.7887343E-02
 -1.0840000E-03   -2.3736192E-02
 -1.0835000E-03   -2.7354684E-02
 -1.0830000E-03   -2.8356921E-02
 -1.0825000E-03   -2.6589295E-02
 -1.0820000E-03   -2.2150032E-02
 -1.0815000E-03   -1.5386334E-02
 -1.0810000E-03   -6.8688393E-03
 -1.0805000E-03    2.6547553E-03
 -1.0800000E-03    1.2323203E-02
 -1.0795000E-03    2.1236917E-02
 -1.0790000E-03    2.8538335E-02
 -1.0784999E-03    3.3490241E-02
 -1.0779999E-03    3.5544913E-02
 -1.0775001E-03    3.4397703E-02
 -1.0770001E-03    3.0019866E-02
 -1.0765000E-03    2.2667341E-02
 -1.0760000E-03    1.2864311E-02
 -1.0755000E-03    1.3625803E-03
 -1.0750000E-03   -1.0919906E-02
 -1.0745000E-03   -2.2976173E-02
 -1.0740000E-03   -3.3796255E-02
 -1.0735000E-03   -4.2454530E-02
 -1.0730000E-03   -4.8190605E-02
 -1.0725000E-03   -5.0476395E-02
 -1.0720000E-03   -4.9063396E-02
 -1.0715000E-03   -4.4005740E-02
 -1.0710000E-03   -3.5656955E-02
 -1.0705000E-03   -2.4640549E-02
 -1.0700000E-03   -1.1797121E-02
 -1.0695000E-03    1.8873711E-03
 -1.0690000E-03    1.5365700E-02
 -1.0685000E-03    2.7618298E-02
 -1.0680000E-03    3.7739053E-02
 -1.0675000E-03    4.5010336E-02
 -1.0670000E-03    4.8960682E-02
 -1.0665000E-03    4.9400110E-02
 -1.0660000E-03    4.6430197E-02
 -1.0655000E-03    4.0428441E-02
 -1.0650000E-03    3.2008633E-02
 -1.0645000E-03    2.1961326E-02
 -1.0640000E-03    1.1180116E-02
 -1.0634999E-03    5.8079319E-04
 -1.0629999E-03   -8.9791818E-03
 -1.0625001E-03   -1.6773505E-02
 -1.0620001E-03   -2.2265710E-02
 -1.0615001E-03   -2.5148727E-02
 -1.0610000E-03   -2.5362261E-02
 -1.0605000E-03   -2.3087110E-02
 -1.0600000E-03   -1.8717738E-02
 -1.0595000E-03   -1.2816454E-02
 -1.0590000E-03   -6.0542235E-03
 -1.0585000E-03    8.5582060E-04
 -1.0580000E-03    7.2255335E-03
 -1.0575000E-03    1.2453196E-02
 -1.0570000E-03    1.6073631E-02
 -1.0565000E-03    1.7792758E-02
 -1.0560000E-03    1.7504077E-02
 -1.0555000E-03    1.5286488E-02
 -1.0550000E-03    1.1384738E-02
 -1.0545000E-03    6.1755539E-03
 -1.0540000E-03    1.2373902E-04
 -1.0535000E-03   -6.2666298E-03
 -1.0530000E-03   -1.2500562E-02
 -1.0525000E-03   -1.8135106E-02
 -1.0520000E-03   -2.2812853E-02
 -1.0515000E-03   -2.6283203E-02
 -1.0510000E-03   -2.8410241E-02
 -1.0505000E-03   -2.9167654E-02
 -1.0500000E-03   -2.8622620E-02
 -1.0495000E-03   -2.6911836E-02
 -1.0490000E-03   -2.4213601E-02
 -1.0485000E-03   -2.0720102E-02
 -1.0479999E-03   -1.6613806E-02
 -1.0474999E-03   -1.2051018E-02
 -1.0470001E-03   -7.1545094E-03
 -1.0465001E-03   -2.0157062E-03
 -1.0460000E-03    3.2945785E-03
 -1.0455000E-03    8.7092202E-03
 -1.0450000E-03    1.4145058E-02
 -1.0445000E-03    1.9484324E-02
 -1.0440000E-03    2.4561239E-02
 -1.0435000E-03    2.9157201E-02
 -1.0430000E-03    3.3006966E-02
 -1.0425000E-03    3.5816714E-02
 -1.0420000E-03    3.7293173E-02
 -1.0415000E-03    3.7181262E-02
 -1.0410000E-03    3.5306055E-02
 -1.0405000E-03    3.1613886E-02
 -1.0400000E-03    2.6206657E-02
 -1.0395000E-03    1.9363709E-02
 -1.0390000E-03    1.1546386E-02
 -1.0385000E-03    3.3820160E-03
 -1.0380000E-03   -4.3738177E-03
 -1.0375000E-03   -1.0895397E-02
 -1.0370000E-03   -1.5361485E-02
 -1.0365000E-03   -1.7040178E-02
 -1.0360000E-03   -1.5375827E-02
 -1.0355000E-03   -1.0068793E-02
 -1.0350000E-03   -1.1385251E-03
 -1.0345000E-03    1.1038639E-02
 -1.0340000E-03    2.5723778E-02
 -1.0335000E-03    4.1845791E-02
 -1.0329999E-03    5.8068555E-02
 -1.0324999E-03    7.2891593E-02
 -1.0319999E-03    8.4777445E-02
 -1.0315001E-03    9.2295341E-02
 -1.0310001E-03    9.4268441E-02
 -1.0305000E-03    8.9910470E-02
 -1.0300000E-03    7.8937300E-02
 -1.0295000E-03    6.1640650E-02
 -1.0290000E-03    3.8913738E-02
 -1.0285000E-03    1.2222546E-02
 -1.0280000E-03   -1.6478522E-02
 -1.0275000E-03   -4.4882800E-02
 -1.0270000E-03   -7.0510030E-02
 -1.0265000E-03   -9.0913862E-02
 -1.0260000E-03   -0.1039006    
 -1.0255000E-03   -0.1077395    
 -1.0250000E-03   -0.1013457    
 -1.0245000E-03   -8.4415354E-02
 -1.0240000E-03   -5.7500098E-02
 -1.0235000E-03   -2.2009866E-02
 -1.0230000E-03    1.9860208E-02
 -1.0225000E-03    6.5275289E-02
 -1.0220000E-03    0.1109693    
 -1.0215000E-03    0.1535003    
 -1.0210000E-03    0.1895323    
 -1.0205000E-03    0.2161188    
 -1.0200000E-03    0.2309633    
 -1.0195000E-03    0.2326329    
 -1.0190000E-03    0.2207047    
 -1.0185000E-03    0.1958290    
 -1.0180000E-03    0.1597029    
 -1.0174999E-03    0.1149530    
 -1.0169999E-03    6.4936526E-02
 -1.0165001E-03    1.3475290E-02
 -1.0160001E-03   -3.5454258E-02
 -1.0155000E-03   -7.8048922E-02
 -1.0150000E-03   -0.1109960    
 -1.0145000E-03   -0.1317520    
 -1.0140000E-03   -0.1387574    
 -1.0135000E-03   -0.1315687    
 -1.0130000E-03   -0.1108952    
 -1.0125000E-03   -7.8537427E-02
 -1.0120000E-03   -3.7230935E-02
 -1.0115000E-03    9.5884809E-03
 -1.0110000E-03    5.8079053E-02
 -1.0105000E-03    0.1043196    
 -1.0100000E-03    0.1446396    
 -1.0095000E-03    0.1759224    
 -1.0090000E-03    0.1958567    
 -1.0085000E-03    0.2031122    
 -1.0080000E-03    0.1974264    
 -1.0075000E-03    0.1795959    
 -1.0070000E-03    0.1513741    
 -1.0065000E-03    0.1152885    
 -1.0060000E-03    7.4393712E-02
 -1.0055000E-03    3.1987570E-02
 -1.0050000E-03   -8.6846771E-03
 -1.0045000E-03   -4.4708483E-02
 -1.0040000E-03   -7.3735394E-02
 -1.0035000E-03   -9.4154544E-02
 -1.0030000E-03   -0.1051861    
 -1.0025000E-03   -0.1068906    
 -1.0019999E-03   -0.1000962    
 -1.0014999E-03   -8.6254694E-02
 -1.0010001E-03   -6.7244448E-02
 -1.0005001E-03   -4.5141160E-02
 -1.0000000E-03   -2.1983482E-02
 -9.9950004E-04    4.4237004E-04
 -9.9900004E-04    2.0775951E-02
 -9.9850004E-04    3.8196441E-02
 -9.9800003E-04    5.2466087E-02
 -9.9750003E-04    6.3900396E-02
 -9.9700002E-04    7.3270194E-02
 -9.9650002E-04    8.1648320E-02
 -9.9600002E-04    9.0219833E-02
 -9.9550001E-04    0.1000785    
 -9.9500001E-04    0.1120345    
 -9.9450001E-04    0.1264555    
 -9.9400000E-04    0.1431628    
 -9.9350000E-04    0.1613940    
 -9.9299999E-04    0.1798404    
 -9.9249999E-04    0.1967562    
 -9.9199999E-04    0.2101299    
 -9.9149998E-04    0.2179008    
 -9.9099998E-04    0.2181971    
 -9.9049998E-04    0.2095712    
 -9.8999997E-04    0.1912049    
 -9.8949997E-04    0.1630615    
 -9.8899996E-04    0.1259657    
 -9.8849996E-04    8.1599563E-02
 -9.8799996E-04    3.2412574E-02
 -9.8749995E-04   -1.8550275E-02
 -9.8699995E-04   -6.7886330E-02
 -9.8649994E-04   -0.1121182    
 -9.8600006E-04   -0.1479948    
 -9.8550005E-04   -0.1727814    
 -9.8500005E-04   -0.1845097    
 -9.8450005E-04   -0.1821633    
 -9.8400004E-04   -0.1657785    
 -9.8350004E-04   -0.1364507    
 -9.8300003E-04   -9.6243396E-02
 -9.8250003E-04   -4.8009101E-02
 -9.8200003E-04    4.8617399E-03
 -9.8150002E-04    5.8739234E-02
 -9.8100002E-04    0.1100709    
 -9.8050002E-04    0.1556858    
 -9.8000001E-04    0.1930567    
 -9.7950001E-04    0.2204940    
 -9.7900000E-04    0.2372536    
 -9.7850000E-04    0.2435488    
 -9.7800000E-04    0.2404667    
 -9.7749999E-04    0.2297988    
 -9.7699999E-04    0.2138055    
 -9.7649998E-04    0.1949400    
 -9.7599998E-04    0.1755614    
 -9.7549998E-04    0.1576696    
 -9.7499997E-04    0.1426884    
 -9.7450003E-04    0.1313232    
 -9.7400002E-04    0.1235062    
 -9.7350002E-04    0.1184374    
 -9.7300002E-04    0.1147151    
 -9.7250001E-04    0.1105432    
 -9.7200001E-04    0.1039910    
 -9.7150001E-04    9.3277641E-02
 -9.7100000E-04    7.7047348E-02
 -9.7050000E-04    5.4605551E-02
 -9.6999999E-04    2.6085738E-02
 -9.6949999E-04   -7.4732667E-03
 -9.6899999E-04   -4.4152118E-02
 -9.6849998E-04   -8.1279173E-02
 -9.6799998E-04   -0.1156524    
 -9.6749997E-04   -0.1438351    
 -9.6700003E-04   -0.1624963    
 -9.6650003E-04   -0.1687621    
 -9.6600002E-04   -0.1605424    
 -9.6550002E-04   -0.1367961    
 -9.6500001E-04   -9.7707368E-02
 -9.6450001E-04   -4.4750601E-02
 -9.6400001E-04    1.9365946E-02
 -9.6350000E-04    9.0876505E-02
 -9.6300000E-04    0.1652402    
 -9.6249999E-04    0.2375049    
 -9.6199999E-04    0.3027196    
 -9.6149999E-04    0.3563560    
 -9.6099998E-04    0.3946996    
 -9.6049998E-04    0.4151726    
 -9.5999998E-04    0.4165568    
 -9.5949997E-04    0.3990945    
 -9.5900003E-04    0.3644578    
 -9.5850002E-04    0.3155887    
 -9.5800002E-04    0.2564253    
 -9.5750001E-04    0.1915418    
 -9.5700001E-04    0.1257361    
 -9.5650001E-04    6.3607253E-02
 -9.5600000E-04    9.1620348E-03
 -9.5550000E-04   -3.4509480E-02
 -9.5500000E-04   -6.5459631E-02
 -9.5449999E-04   -8.2988940E-02
 -9.5399999E-04   -8.7623946E-02
 -9.5349998E-04   -8.0972008E-02
 -9.5299998E-04   -6.5470837E-02
 -9.5249998E-04   -4.4061322E-02
 -9.5199997E-04   -1.9820090E-02
 -9.5150003E-04    4.4077160E-03
 -9.5100002E-04    2.6335290E-02
 -9.5050002E-04    4.4484861E-02
 -9.5000002E-04    5.8334928E-02
 -9.4950001E-04    6.8347834E-02
 -9.4900001E-04    7.5874805E-02
 -9.4850000E-04    8.2948796E-02
 -9.4800000E-04    9.1988191E-02
 -9.4750000E-04    0.1054445    
 -9.4699999E-04    0.1254337    
 -9.4649999E-04    0.1533938    
 -9.4599999E-04    0.1898091    
 -9.4549998E-04    0.2340341    
 -9.4499998E-04    0.2842419    
 -9.4449997E-04    0.3375080    
 -9.4400003E-04    0.3900252    
 -9.4350002E-04    0.4374324    
 -9.4300002E-04    0.4752270    
 -9.4250002E-04    0.4992209    
 -9.4200001E-04    0.5059933    
 -9.4150001E-04    0.4932936    
 -9.4100001E-04    0.4603510    
 -9.4050000E-04    0.4080553    
 -9.4000000E-04    0.3389855    
 -9.3949999E-04    0.2572780    
 -9.3899999E-04    0.1683420    
 -9.3849999E-04    7.8444295E-02
 -9.3799998E-04   -5.8006509E-03
 -9.3749998E-04   -7.7987641E-02
 -9.3699998E-04   -0.1324745    
 -9.3649997E-04   -0.1648794    
 -9.3600003E-04   -0.1724741    
 -9.3550002E-04   -0.1544353    
 -9.3500002E-04   -0.1119289    
 -9.3450001E-04   -4.8017252E-02
 -9.3400001E-04    3.2601312E-02
 -9.3350001E-04    0.1239979    
 -9.3300000E-04    0.2195253    
 -9.3250000E-04    0.3123882    
 -9.3200000E-04    0.3962194    
 -9.3149999E-04    0.4656061    
 -9.3099999E-04    0.5165184    
 -9.3049998E-04    0.5466024    
 -9.2999998E-04    0.5553092    
 -9.2949998E-04    0.5438547    
 -9.2899997E-04    0.5150145    
 -9.2850003E-04    0.4727797    
 -9.2800002E-04    0.4219099    
 -9.2750002E-04    0.3674305    
 -9.2700002E-04    0.3141258    
 -9.2650001E-04    0.2660795    
 -9.2600001E-04    0.2263072    
 -9.2550000E-04    0.1965174    
 -9.2500000E-04    0.1770211    
 -9.2450000E-04    0.1667967    
 -9.2399999E-04    0.1636986    
 -9.2349999E-04    0.1647846    
 -9.2299999E-04    0.1667232    
 -9.2249998E-04    0.1662366    
 -9.2199998E-04    0.1605277    
 -9.2149997E-04    0.1476463    
 -9.2100003E-04    0.1267531    
 -9.2050002E-04    9.8252997E-02
 -9.2000002E-04    6.3782871E-02
 -9.1950002E-04    2.6055936E-02
 -9.1900001E-04   -1.1421354E-02
 -9.1850001E-04   -4.4728369E-02
 -9.1800001E-04   -6.9964111E-02
 -9.1750000E-04   -8.3688200E-02
 -9.1700000E-04   -8.3320379E-02
 -9.1649999E-04   -6.7454115E-02
 -9.1599999E-04   -3.6048755E-02
 -9.1549999E-04    9.5223617E-03
 -9.1499998E-04    6.6575170E-02
 -9.1449998E-04    0.1313605    
 -9.1399997E-04    0.1994277    
 -9.1349997E-04    0.2660684    
 -9.1300003E-04    0.3267949    
 -9.1250002E-04    0.3778006    
 -9.1200002E-04    0.4163549    
 -9.1150001E-04    0.4410873    
 -9.1100001E-04    0.4521304    
 -9.1050001E-04    0.4511024    
 -9.1000000E-04    0.4409308    
 -9.0950000E-04    0.4255311    
 -9.0899999E-04    0.4093747    
 -9.0849999E-04    0.3969889    
 -9.0799999E-04    0.3924423    
 -9.0749998E-04    0.3988698    
 -9.0699998E-04    0.4180898    
 -9.0649998E-04    0.4503559    
 -9.0599997E-04    0.4942730    
 -9.0550003E-04    0.5468922    
 -9.0500002E-04    0.6039771    
 -9.0450002E-04    0.6604198    
 -9.0400001E-04    0.7107660    
 -9.0350001E-04    0.7497990    
 -9.0300001E-04    0.7731210    
 -9.0250000E-04    0.7776735    
 -9.0200000E-04    0.7621409    
 -9.0150000E-04    0.7271907    
 -9.0099999E-04    0.6755236    
 -9.0049999E-04    0.6117194    
 -8.9999998E-04    0.5418902    
 -8.9949998E-04    0.4731680    
 -8.9899998E-04    0.4130735    
 -8.9849997E-04    0.3688240    
 -8.9800003E-04    0.3466459    
 -8.9750002E-04    0.3511593    
 -8.9700002E-04    0.3848942    
 -8.9650002E-04    0.4479885    
 -8.9600001E-04    0.5381004    
 -8.9550001E-04    0.6505459    
 -8.9500000E-04    0.7786544    
 -8.9450000E-04    0.9143114    
 -8.9400000E-04     1.048640    
 -8.9349999E-04     1.172761    
 -8.9299999E-04     1.278558    
 -8.9249999E-04     1.359385    
 -8.9199998E-04     1.410642    
 -8.9149998E-04     1.430167    
 -8.9099997E-04     1.418419    
 -8.9050003E-04     1.378417    
 -8.9000002E-04     1.315455    
 -8.8950002E-04     1.236620    
 -8.8900002E-04     1.150145    
 -8.8850001E-04     1.064676    
 -8.8800001E-04    0.9885077    
 -8.8750001E-04    0.9288626    
 -8.8700000E-04    0.8912820    
 -8.8650000E-04    0.8791798    
 -8.8599999E-04    0.8935995    
 -8.8549999E-04    0.9331933    
 -8.8499999E-04    0.9944221    
 -8.8449998E-04     1.071951    
 -8.8399998E-04     1.159202    
 -8.8349998E-04     1.249008    
 -8.8299997E-04     1.334301    
 -8.8250003E-04     1.408775    
 -8.8200002E-04     1.467455    
 -8.8150002E-04     1.507118    
 -8.8100001E-04     1.526540    
 -8.8050001E-04     1.526538    
 -8.8000001E-04     1.509812    
 -8.7950000E-04     1.480603    
 -8.7900000E-04     1.444211    
 -8.7850000E-04     1.406422    
 -8.7799999E-04     1.372889    
 -8.7749999E-04     1.348550    
 -8.7699998E-04     1.337123    
 -8.7649998E-04     1.340727    
 -8.7599998E-04     1.359679    
 -8.7549997E-04     1.392462    
 -8.7500003E-04     1.435886    
 -8.7450002E-04     1.485410    
 -8.7400002E-04     1.535595    
 -8.7350002E-04     1.580647    
 -8.7300001E-04     1.614987    
 -8.7250001E-04     1.633809    
 -8.7200000E-04     1.633556    
 -8.7150000E-04     1.612281    
 -8.7100000E-04     1.569859    
 -8.7049999E-04     1.508026    
 -8.6999999E-04     1.430258    
 -8.6949999E-04     1.341487    
 -8.6899998E-04     1.247701    
 -8.6849998E-04     1.155441    
 -8.6799997E-04     1.071278    
 -8.6750003E-04     1.001280    
 -8.6700002E-04    0.9505416    
 -8.6650002E-04    0.9228047    
 -8.6600002E-04    0.9201976    
 -8.6550001E-04    0.9431166    
 -8.6500001E-04    0.9902485    
 -8.6450001E-04     1.058726    
 -8.6400000E-04     1.144396    
 -8.6350000E-04     1.242170    
 -8.6299999E-04     1.346422    
 -8.6249999E-04     1.451399    
 -8.6199999E-04     1.551607    
 -8.6149998E-04     1.642137    
 -8.6099998E-04     1.718930    
 -8.6049997E-04     1.778933    
 -8.5999997E-04     1.820182    
 -8.5950003E-04     1.841786    
 -8.5900002E-04     1.843846    
 -8.5850002E-04     1.827316    
 -8.5800001E-04     1.793837    
 -8.5750001E-04     1.745563    
 -8.5700001E-04     1.684993    
 -8.5650000E-04     1.614832    
 -8.5600000E-04     1.537884    
 -8.5549999E-04     1.456986    
 -8.5499999E-04     1.374964    
 -8.5449999E-04     1.294620    
 -8.5399998E-04     1.218721    
 -8.5349998E-04     1.149989    
 -8.5299998E-04     1.091066    
 -8.5249997E-04     1.044454    
 -8.5200003E-04     1.012424    
 -8.5150002E-04    0.9968883    
 -8.5100002E-04    0.9992594    
 -8.5050002E-04     1.020288    
 -8.5000001E-04     1.059923    
 -8.4950001E-04     1.117187    
 -8.4900000E-04     1.190121    
 -8.4850000E-04     1.275778    
 -8.4800000E-04     1.370315    
 -8.4749999E-04     1.469153    
 -8.4699999E-04     1.567236    
 -8.4649998E-04     1.659346    
 -8.4599998E-04     1.740465    
 -8.4549998E-04     1.806168    
 -8.4499997E-04     1.852979    
 -8.4450003E-04     1.878700    
 -8.4400002E-04     1.882633    
 -8.4350002E-04     1.865715    
 -8.4300002E-04     1.830502    
 -8.4250001E-04     1.781030    
 -8.4200001E-04     1.722538    
 -8.4150000E-04     1.661073    
 -8.4100000E-04     1.603012    
 -8.4050000E-04     1.554532    
 -8.3999999E-04     1.521081    
 -8.3949999E-04     1.506890    
 -8.3899999E-04     1.514574    
 -8.3849998E-04     1.544866    
 -8.3799998E-04     1.596502    
 -8.3749997E-04     1.666289    
 -8.3700003E-04     1.749341    
 -8.3650002E-04     1.839472    
 -8.3600002E-04     1.929724    
 -8.3550002E-04     2.012977    
 -8.3500001E-04     2.082590    
 -8.3450001E-04     2.133020    
 -8.3400001E-04     2.160357    
 -8.3350000E-04     2.162733    
 -8.3300000E-04     2.140550    
 -8.3249999E-04     2.096512    
 -8.3199999E-04     2.035451    
 -8.3149999E-04     1.963951    
 -8.3099998E-04     1.889804    
 -8.3049998E-04     1.821334    
 -8.2999998E-04     1.766659    
 -8.2949997E-04     1.732941    
 -8.2900003E-04     1.725704    
 -8.2850002E-04     1.748268    
 -8.2800002E-04     1.801373    
 -8.2750001E-04     1.883016    
 -8.2700001E-04     1.988525    
 -8.2650001E-04     2.110878    
 -8.2600000E-04     2.241238    
 -8.2550000E-04     2.369666    
 -8.2500000E-04     2.485953    
 -8.2449999E-04     2.580503    
 -8.2399999E-04     2.645193    
 -8.2349998E-04     2.674126    
 -8.2299998E-04     2.664218    
 -8.2249998E-04     2.615560    
 -8.2199997E-04     2.531516    
 -8.2150003E-04     2.418543    
 -8.2100002E-04     2.285754    
 -8.2050002E-04     2.144226    
 -8.2000002E-04     2.006144    
 -8.1950001E-04     1.883824    
 -8.1900001E-04     1.788708    
 -8.1850000E-04     1.730408    
 -8.1800000E-04     1.715898    
 -8.1750000E-04     1.748899    
 -8.1699999E-04     1.829539    
 -8.1649999E-04     1.954304    
 -8.1599999E-04     2.116284    
 -8.1549998E-04     2.305718    
 -8.1499998E-04     2.510768    
 -8.1449997E-04     2.718476    
 -8.1400003E-04     2.915812    
 -8.1350002E-04     3.090736    
 -8.1300002E-04     3.233166    
 -8.1250002E-04     3.335789    
 -8.1200001E-04     3.394624    
 -8.1150001E-04     3.409302    
 -8.1100001E-04     3.383034    
 -8.1050000E-04     3.322267    
 -8.1000000E-04     3.236066    
 -8.0949999E-04     3.135272    
 -8.0899999E-04     3.031504    
 -8.0849999E-04     2.936118    
 -8.0799998E-04     2.859184    
 -8.0749998E-04     2.808605    
 -8.0699997E-04     2.789433    
 -8.0649997E-04     2.803461    
 -8.0600003E-04     2.849119    
 -8.0550002E-04     2.921683    
 -8.0500002E-04     3.013786    
 -8.0450001E-04     3.116173    
 -8.0400001E-04     3.218632    
 -8.0350001E-04     3.311025    
 -8.0300000E-04     3.384304    
 -8.0250000E-04     3.431426    
 -8.0200000E-04     3.448081    
 -8.0149999E-04     3.433157    
 -8.0099999E-04     3.388901    
 -8.0049998E-04     3.320746    
 -7.9999998E-04     3.236840    
 -7.9949998E-04     3.147291    
 -7.9899997E-04     3.063221    
 -7.9850003E-04     2.995698    
 -7.9800002E-04     2.954666    
 -7.9750002E-04     2.947952    
 -7.9700002E-04     2.980470    
 -7.9650001E-04     3.053678    
 -7.9600001E-04     3.165357    
 -7.9550000E-04     3.309742    
 -7.9500000E-04     3.477973    
 -7.9450000E-04     3.658859    
 -7.9399999E-04     3.839864    
 -7.9349999E-04     4.008235    
 -7.9299998E-04     4.152162    
 -7.9249998E-04     4.261867    
 -7.9199998E-04     4.330516    
 -7.9149997E-04     4.354867    
 -7.9100003E-04     4.335583    
 -7.9050002E-04     4.277197    
 -7.9000002E-04     4.187708    
 -7.8950002E-04     4.077860    
 -7.8900001E-04     3.960160    
 -7.8850001E-04     3.847734    
 -7.8800000E-04     3.753123    
 -7.8750000E-04     3.687138    
 -7.8700000E-04     3.657875    
 -7.8649999E-04     3.669997    
 -7.8599999E-04     3.724338    
 -7.8549999E-04     3.817868    
 -7.8499998E-04     3.944044    
 -7.8449998E-04     4.093473    
 -7.8399997E-04     4.254862    
 -7.8350003E-04     4.416137    
 -7.8300002E-04     4.565631    
 -7.8250002E-04     4.693223    
 -7.8200002E-04     4.791317    
 -7.8150001E-04     4.855564    
 -7.8100001E-04     4.885249    
 -7.8050001E-04     4.883323    
 -7.8000000E-04     4.856052    
 -7.7950000E-04     4.812340    
 -7.7899999E-04     4.762781    
 -7.7849999E-04     4.718535    
 -7.7799999E-04     4.690149    
 -7.7749998E-04     4.686438    
 -7.7699998E-04     4.713531    
 -7.7649998E-04     4.774198    
 -7.7599997E-04     4.867508    
 -7.7550003E-04     4.988873    
 -7.7500002E-04     5.130464    
 -7.7450002E-04     5.281963    
 -7.7400001E-04     5.431591    
 -7.7350001E-04     5.567282    
 -7.7300001E-04     5.677924    
 -7.7250000E-04     5.754509    
 -7.7200000E-04     5.791101    
 -7.7150000E-04     5.785501    
 -7.7099999E-04     5.739567    
 -7.7049999E-04     5.659129    
 -7.6999998E-04     5.553513    
 -7.6949998E-04     5.434731    
 -7.6899998E-04     5.316388    
 -7.6849997E-04     5.212443    
 -7.6800003E-04     5.135913    
 -7.6750002E-04     5.097677    
 -7.6700002E-04     5.105474    
 -7.6650002E-04     5.163205    
 -7.6600001E-04     5.270598    
 -7.6550001E-04     5.423280    
 -7.6500000E-04     5.613226    
 -7.6450000E-04     5.829558    
 -7.6400000E-04     6.059597    
 -7.6349999E-04     6.290067    
 -7.6299999E-04     6.508328    
 -7.6249999E-04     6.703516    
 -7.6199998E-04     6.867476    
 -7.6149998E-04     6.995393    
 -7.6099997E-04     7.086072    
 -7.6050003E-04     7.141840    
 -7.6000002E-04     7.168085    
 -7.5950002E-04     7.172499    
 -7.5900002E-04     7.164101    
 -7.5850001E-04     7.152154    
 -7.5800001E-04     7.145099    
 -7.5750001E-04     7.149612    
 -7.5700000E-04     7.169906    
 -7.5650000E-04     7.207326    
 -7.5599999E-04     7.260308    
 -7.5549999E-04     7.324676    
 -7.5499999E-04     7.394269    
 -7.5449998E-04     7.461799    
 -7.5399998E-04     7.519864    
 -7.5349997E-04     7.561980    
 -7.5299997E-04     7.583523    
 -7.5250003E-04     7.582472    
 -7.5200002E-04     7.559845    
 -7.5150002E-04     7.519795    
 -7.5100001E-04     7.469325    
 -7.5050001E-04     7.417656    
 -7.5000001E-04     7.375307    
 -7.4950000E-04     7.352978    
 -7.4900000E-04     7.360364    
 -7.4850000E-04     7.405020    
 -7.4799999E-04     7.491414    
 -7.4749999E-04     7.620272    
 -7.4699998E-04     7.788306    
 -7.4649998E-04     7.988351    
 -7.4599998E-04     8.209933    