 -1.2000001E-03    1.0000000E-24
 -1.1995001E-03    1.0000000E-24
 -1.1990000E-03    1.0000000E-24
 -1.1985000E-03    1.0000000E-24
 -1.1980000E-03    1.0000000E-24
 -1.1975000E-03    1.0000000E-24
 -1.1970000E-03    1.0000000E-24
 -1.1965000E-03    1.0000000E-24
 -1.1960000E-03    1.0000001E-24
 -1.1955000E-03    1.0000001E-24
 -1.1950000E-03    1.0000001E-24
 -1.1945000E-03    1.0000001E-24
 -1.1940000E-03    1.0000001E-24
 -1.1935000E-03    1.0000001E-24
 -1.1930000E-03    1.0000001E-24
 -1.1925000E-03    1.0000001E-24
 -1.1920000E-03    1.0000001E-24
 -1.1915000E-03    1.0000001E-24
 -1.1910000E-03    1.0000001E-24
 -1.1905000E-03    1.0000001E-24
 -1.1900000E-03    1.0000001E-24
 -1.1895000E-03    1.0000001E-24
 -1.1890000E-03    1.0000001E-24
 -1.1885000E-03    1.0000001E-24
 -1.1880000E-03    1.0000001E-24
 -1.1875000E-03    1.0000001E-24
 -1.1870000E-03    1.0000002E-24
 -1.1865000E-03    1.0000002E-24
 -1.1860000E-03    1.0000002E-24
 -1.1854999E-03    1.0000002E-24
 -1.1849999E-03    1.0000002E-24
 -1.1845001E-03    1.0000002E-24
 -1.1840001E-03    1.0000002E-24
 -1.1835000E-03    1.0000002E-24
 -1.1830000E-03    1.0000002E-24
 -1.1825000E-03    1.0000002E-24
 -1.1820000E-03    1.0000002E-24
 -1.1815000E-03    1.0000001E-24
 -1.1810000E-03    1.0000001E-24
 -1.1805000E-03    1.0000001E-24
 -1.1800000E-03    1.0000001E-24
 -1.1795000E-03    1.0000001E-24
 -1.1790000E-03    1.0000001E-24
 -1.1785000E-03    1.0000001E-24
 -1.1780000E-03    1.0000001E-24
 -1.1775000E-03    1.0000001E-24
 -1.1770000E-03    1.0000001E-24
 -1.1765000E-03    1.0000001E-24
 -1.1760000E-03    1.0000001E-24
 -1.1755000E-03    1.0000001E-24
 -1.1750000E-03    1.0000001E-24
 -1.1745000E-03    1.0000001E-24
 -1.1740000E-03    1.0000001E-24
 -1.1735000E-03    1.0000001E-24
 -1.1730000E-03    1.0000001E-24
 -1.1725000E-03    1.0000001E-24
 -1.1720000E-03    1.0000001E-24
 -1.1715000E-03    1.0000001E-24
 -1.1710000E-03    1.0000001E-24
 -1.1704999E-03    1.0000001E-24
 -1.1699999E-03    1.0000001E-24
 -1.1695001E-03    1.0000001E-24
 -1.1690001E-03    1.0000001E-24
 -1.1685000E-03    1.0000001E-24
 -1.1680000E-03    1.0000001E-24
 -1.1675000E-03    1.0000001E-24
 -1.1670000E-03    1.0000001E-24
 -1.1665000E-03    1.0000001E-24
 -1.1660000E-03    1.0000001E-24
 -1.1655000E-03    1.0000001E-24
 -1.1650000E-03    1.0000001E-24
 -1.1645000E-03    1.0000001E-24
 -1.1640000E-03    1.0000001E-24
 -1.1635000E-03    1.0000001E-24
 -1.1630000E-03    1.0000001E-24
 -1.1625000E-03    1.0000001E-24
 -1.1620000E-03    1.0000001E-24
 -1.1615000E-03    1.0000001E-24
 -1.1610000E-03    1.0000002E-24
 -1.1605000E-03    1.0000003E-24
 -1.1600000E-03    1.0000003E-24
 -1.1595000E-03    1.0000003E-24
 -1.1590000E-03    1.0000003E-24
 -1.1585000E-03    1.0000003E-24
 -1.1580000E-03    1.0000003E-24
 -1.1575000E-03    1.0000003E-24
 -1.1570000E-03    1.0000003E-24
 -1.1565000E-03    1.0000003E-24
 -1.1560000E-03    1.0000003E-24
 -1.1555000E-03    1.0000003E-24
 -1.1549999E-03    1.0000003E-24
 -1.1544999E-03    1.0000003E-24
 -1.1540001E-03    1.0000002E-24
 -1.1535001E-03    1.0000001E-24
 -1.1530000E-03    1.0000000E-24
 -1.1525000E-03    1.0000000E-24
 -1.1520000E-03    1.0000000E-24
 -1.1515000E-03    1.0000000E-24
 -1.1510000E-03    1.0000000E-24
 -1.1505000E-03    1.0000000E-24
 -1.1500000E-03    1.0000000E-24
 -1.1495000E-03    1.0000000E-24
 -1.1490000E-03    1.0000000E-24
 -1.1485000E-03    1.0000000E-24
 -1.1480000E-03    1.0000000E-24
 -1.1475000E-03    1.0000000E-24
 -1.1470000E-03    1.0000000E-24
 -1.1465000E-03    1.0000000E-24
 -1.1460000E-03    1.0000000E-24
 -1.1455000E-03    1.0000000E-24
 -1.1450000E-03    1.0000000E-24
 -1.1445000E-03    1.0000000E-24
 -1.1440000E-03    1.0000000E-24
 -1.1435000E-03    1.0000000E-24
 -1.1430000E-03    1.0000000E-24
 -1.1425000E-03    1.0000000E-24
 -1.1420000E-03    1.0000000E-24
 -1.1415000E-03    1.0000000E-24
 -1.1410000E-03    1.0000000E-24
 -1.1405000E-03    1.0000000E-24
 -1.1399999E-03    1.0000000E-24
 -1.1394999E-03    1.0000000E-24
 -1.1390001E-03    1.0000000E-24
 -1.1385001E-03    1.0000001E-24
 -1.1380001E-03    1.0000002E-24
 -1.1375000E-03    1.0000003E-24
 -1.1370000E-03    1.0000004E-24
 -1.1365000E-03    1.0000004E-24
 -1.1360000E-03    1.0000004E-24
 -1.1355000E-03    1.0000004E-24
 -1.1350000E-03    1.0000004E-24
 -1.1345000E-03    1.0000004E-24
 -1.1340000E-03    1.0000004E-24
 -1.1335000E-03    1.0000004E-24
 -1.1330000E-03    1.0000004E-24
 -1.1325000E-03    1.0000004E-24
 -1.1320000E-03    1.0000004E-24
 -1.1315000E-03    1.0000003E-24
 -1.1310000E-03    1.0000002E-24
 -1.1305000E-03    1.0000001E-24
 -1.1300000E-03    1.0000000E-24
 -1.1295000E-03    9.9999992E-25
 -1.1290000E-03    9.9999992E-25
 -1.1285000E-03    9.9999992E-25
 -1.1280000E-03    9.9999992E-25
 -1.1275000E-03    9.9999992E-25
 -1.1270000E-03    9.9999992E-25
 -1.1265000E-03    1.0000000E-24
 -1.1260000E-03    1.0000001E-24
 -1.1255000E-03    1.0000002E-24
 -1.1250000E-03    1.0000003E-24
 -1.1244999E-03    1.0000004E-24
 -1.1239999E-03    1.0000005E-24
 -1.1235001E-03    1.0000006E-24
 -1.1230001E-03    1.0000006E-24
 -1.1225000E-03    1.0000006E-24
 -1.1220000E-03    1.0000006E-24
 -1.1215000E-03    1.0000006E-24
 -1.1210000E-03    1.0000005E-24
 -1.1205000E-03    1.0000004E-24
 -1.1200000E-03    1.0000003E-24
 -1.1195000E-03    1.0000002E-24
 -1.1190000E-03    1.0000001E-24
 -1.1185000E-03    1.0000000E-24
 -1.1180000E-03    9.9999992E-25
 -1.1175000E-03    9.9999982E-25
 -1.1170000E-03    9.9999972E-25
 -1.1165000E-03    9.9999972E-25
 -1.1160000E-03    9.9999972E-25
 -1.1155000E-03    9.9999972E-25
 -1.1150000E-03    9.9999982E-25
 -1.1145000E-03    9.9999992E-25
 -1.1140000E-03    1.0000000E-24
 -1.1135000E-03    1.0000001E-24
 -1.1130000E-03    1.0000002E-24
 -1.1125000E-03    1.0000003E-24
 -1.1120000E-03    1.0000004E-24
 -1.1115000E-03    1.0000004E-24
 -1.1110000E-03    1.0000004E-24
 -1.1105000E-03    1.0000004E-24
 -1.1100000E-03    1.0000003E-24
 -1.1094999E-03    1.0000002E-24
 -1.1089999E-03    1.0000001E-24
 -1.1084999E-03    1.0000000E-24
 -1.1080001E-03    9.9999992E-25
 -1.1075001E-03    9.9999982E-25
 -1.1070000E-03    9.9999982E-25
 -1.1065000E-03    9.9999982E-25
 -1.1060000E-03    9.9999982E-25
 -1.1055000E-03    9.9999992E-25
 -1.1050000E-03    1.0000000E-24
 -1.1045000E-03    1.0000002E-24
 -1.1040000E-03    1.0000004E-24
 -1.1035000E-03    1.0000006E-24
 -1.1030000E-03    1.0000007E-24
 -1.1025000E-03    1.0000008E-24
 -1.1020000E-03    1.0000008E-24
 -1.1015000E-03    1.0000008E-24
 -1.1010000E-03    1.0000007E-24
 -1.1005000E-03    1.0000006E-24
 -1.1000000E-03    1.0000005E-24
 -1.0995000E-03    1.0000003E-24
 -1.0990000E-03    1.0000001E-24
 -1.0985000E-03    9.9999992E-25
 -1.0980000E-03    9.9999972E-25
 -1.0975000E-03    9.9999963E-25
 -1.0970000E-03    9.9999953E-25
 -1.0965000E-03    9.9999943E-25
 -1.0960000E-03    9.9999943E-25
 -1.0955000E-03    9.9999943E-25
 -1.0950000E-03    9.9999953E-25
 -1.0945000E-03    9.9999963E-25
 -1.0939999E-03    9.9999972E-25
 -1.0934999E-03    9.9999992E-25
 -1.0930001E-03    1.0000001E-24
 -1.0925001E-03    1.0000003E-24
 -1.0920000E-03    1.0000004E-24
 -1.0915000E-03    1.0000005E-24
 -1.0910000E-03    1.0000006E-24
 -1.0905000E-03    1.0000006E-24
 -1.0900000E-03    1.0000006E-24
 -1.0895000E-03    1.0000006E-24
 -1.0890000E-03    1.0000005E-24
 -1.0885000E-03    1.0000004E-24
 -1.0880000E-03    1.0000003E-24
 -1.0875000E-03    1.0000001E-24
 -1.0870000E-03    9.9999992E-25
 -1.0865000E-03    9.9999972E-25
 -1.0860000E-03    9.9999963E-25
 -1.0855000E-03    9.9999953E-25
 -1.0850000E-03    9.9999943E-25
 -1.0845000E-03    9.9999943E-25
 -1.0840000E-03    9.9999953E-25
 -1.0835000E-03    9.9999963E-25
 -1.0830000E-03    9.9999972E-25
 -1.0825000E-03    9.9999972E-25
 -1.0820000E-03    9.9999972E-25
 -1.0815000E-03    9.9999972E-25
 -1.0810000E-03    9.9999963E-25
 -1.0805000E-03    9.9999943E-25
 -1.0800000E-03    9.9999923E-25
 -1.0795000E-03    9.9999903E-25
 -1.0790000E-03    9.9999884E-25
 -1.0784999E-03    9.9999864E-25
 -1.0779999E-03    9.9999854E-25
 -1.0775001E-03    9.9999864E-25
 -1.0770001E-03    9.9999864E-25
 -1.0765000E-03    9.9999884E-25
 -1.0760000E-03    9.9999893E-25
 -1.0755000E-03    9.9999933E-25
 -1.0750000E-03    1.0000000E-24
 -1.0745000E-03    1.0000009E-24
 -1.0740000E-03    1.0000018E-24
 -1.0735000E-03    1.0000027E-24
 -1.0730000E-03    1.0000040E-24
 -1.0725000E-03    1.0000059E-24
 -1.0720000E-03    1.0000076E-24
 -1.0715000E-03    1.0000097E-24
 -1.0710000E-03    1.0000104E-24
 -1.0705000E-03    1.0000107E-24
 -1.0700000E-03    1.0000114E-24
 -1.0695000E-03    1.0000113E-24
 -1.0690000E-03    1.0000103E-24
 -1.0685000E-03    1.0000084E-24
 -1.0680000E-03    1.0000055E-24
 -1.0675000E-03    1.0000001E-24
 -1.0670000E-03    9.9999302E-25
 -1.0665000E-03    9.9998474E-25
 -1.0660000E-03    9.9997458E-25
 -1.0655000E-03    9.9996748E-25
 -1.0650000E-03    9.9996018E-25
 -1.0645000E-03    9.9995367E-25
 -1.0640000E-03    9.9995190E-25
 -1.0634999E-03    9.9995279E-25
 -1.0629999E-03    9.9996146E-25
 -1.0625001E-03    9.9998257E-25
 -1.0620001E-03    1.0000106E-24
 -1.0615001E-03    1.0000461E-24
 -1.0610000E-03    1.0000877E-24
 -1.0605000E-03    1.0001293E-24
 -1.0600000E-03    1.0001474E-24
 -1.0595000E-03    1.0001571E-24
 -1.0590000E-03    1.0001413E-24
 -1.0585000E-03    1.0000889E-24
 -1.0580000E-03    9.9999361E-25
 -1.0575000E-03    9.9987153E-25
 -1.0570000E-03    9.9974591E-25
 -1.0565000E-03    9.9963645E-25
 -1.0560000E-03    9.9955007E-25
 -1.0555000E-03    9.9949850E-25
 -1.0550000E-03    9.9949298E-25
 -1.0545000E-03    9.9953459E-25
 -1.0540000E-03    9.9954790E-25
 -1.0535000E-03    9.9957630E-25
 -1.0530000E-03    9.9961604E-25
 -1.0525000E-03    9.9964069E-25
 -1.0520000E-03    9.9961259E-25
 -1.0515000E-03    9.9949229E-25
 -1.0510000E-03    9.9936449E-25
 -1.0505000E-03    9.9916698E-25
 -1.0500000E-03    9.9899255E-25
 -1.0495000E-03    9.9890853E-25
 -1.0490000E-03    9.9884710E-25
 -1.0485000E-03    9.9889108E-25
 -1.0479999E-03    9.9919854E-25
 -1.0474999E-03    9.9969424E-25
 -1.0470001E-03    1.0003782E-24
 -1.0465001E-03    1.0013633E-24
 -1.0460000E-03    1.0023860E-24
 -1.0455000E-03    1.0032883E-24
 -1.0450000E-03    1.0041229E-24
 -1.0445000E-03    1.0050779E-24
 -1.0440000E-03    1.0058517E-24
 -1.0435000E-03    1.0062717E-24
 -1.0430000E-03    1.0064582E-24
 -1.0425000E-03    1.0059972E-24
 -1.0420000E-03    1.0048736E-24
 -1.0415000E-03    1.0030875E-24
 -1.0410000E-03    1.0009701E-24
 -1.0405000E-03    9.9900329E-25
 -1.0400000E-03    9.9595218E-25
 -1.0395000E-03    9.9323248E-25
 -1.0390000E-03    9.9006096E-25
 -1.0385000E-03    9.8750673E-25
 -1.0380000E-03    9.8532908E-25
 -1.0375000E-03    9.8420555E-25
 -1.0370000E-03    9.8531074E-25
 -1.0365000E-03    9.8798192E-25
 -1.0360000E-03    9.9342388E-25
 -1.0355000E-03    1.0001308E-24
 -1.0350000E-03    1.0084038E-24
 -1.0345000E-03    1.0167971E-24
 -1.0340000E-03    1.0209742E-24
 -1.0335000E-03    1.0259945E-24
 -1.0329999E-03    1.0313761E-24
 -1.0324999E-03    1.0345291E-24
 -1.0319999E-03    1.0358148E-24
 -1.0315001E-03    1.0351279E-24
 -1.0310001E-03    1.0316702E-24
 -1.0305000E-03    1.0260441E-24
 -1.0300000E-03    1.0172857E-24
 -1.0295000E-03    1.0015403E-24
 -1.0290000E-03    9.8145794E-25
 -1.0285000E-03    9.6667617E-25
 -1.0280000E-03    9.5864073E-25
 -1.0275000E-03    9.4458185E-25
 -1.0270000E-03    9.3630542E-25
 -1.0265000E-03    9.3959408E-25
 -1.0260000E-03    9.5324285E-25
 -1.0255000E-03    9.8243219E-25
 -1.0250000E-03    1.0289690E-24
 -1.0245000E-03    1.0875526E-24
 -1.0240000E-03    1.1692661E-24
 -1.0235000E-03    1.2442333E-24
 -1.0230000E-03    1.3047445E-24
 -1.0225000E-03    1.3546543E-24
 -1.0220000E-03    1.3650505E-24
 -1.0215000E-03    1.3397881E-24
 -1.0210000E-03    1.2730846E-24
 -1.0205000E-03    1.1514476E-24
 -1.0200000E-03    1.0259555E-24
 -1.0195000E-03    8.7685163E-25
 -1.0190000E-03    7.0750898E-25
 -1.0185000E-03    5.6804257E-25
 -1.0180000E-03    4.7869095E-25
 -1.0174999E-03    4.3367165E-25
 -1.0169999E-03    3.8287002E-25
 -1.0165001E-03    3.5519840E-25
 -1.0160001E-03    3.3523697E-25
 -1.0155000E-03    3.0756565E-25
 -1.0150000E-03    3.0495178E-25
 -1.0145000E-03    2.3391232E-25
 -1.0140000E-03    1.7540158E-25
 -1.0135000E-03    1.0147075E-25
 -1.0130000E-03    1.4704409E-25
 -1.0125000E-03    3.1983160E-25
 -1.0120000E-03    5.4658885E-25
 -1.0115000E-03    7.1166648E-25
 -1.0110000E-03    8.3819420E-25
 -1.0105000E-03    1.0649513E-24
 -1.0100000E-03    1.2454487E-24
 -1.0095000E-03    1.6880850E-24
 -1.0090000E-03    2.1384315E-24
 -1.0085000E-03    2.6543130E-24
 -1.0080000E-03    3.3918558E-24
 -1.0075000E-03    3.8749700E-24
 -1.0070000E-03    4.6356417E-24
 -1.0065000E-03    5.4117325E-24
 -1.0060000E-03    6.4037007E-24
 -1.0055000E-03    6.7788703E-24
 -1.0050000E-03    6.6914432E-24
 -1.0045000E-03    6.3881353E-24
 -1.0040000E-03    4.8512358E-24
 -1.0035000E-03    2.4508228E-24
 -1.0030000E-03   -1.2294434E-24
 -1.0025000E-03   -5.8715248E-24
 -1.0019999E-03   -1.1415669E-23
 -1.0014999E-03   -1.8841039E-23
 -1.0010001E-03   -2.5958008E-23
 -1.0005001E-03   -3.3815129E-23
 -1.0000000E-03   -4.0253609E-23
 -9.9950004E-04   -4.5458488E-23
 -9.9900004E-04   -4.8874657E-23
 -9.9850004E-04   -4.7664850E-23
 -9.9800003E-04   -4.4481292E-23
 -9.9750003E-04   -3.8090389E-23
 -9.9700002E-04   -2.8954739E-23
 -9.9650002E-04   -1.4264068E-23
 -9.9600002E-04    4.0040154E-24
 -9.9550001E-04    2.2210412E-23
 -9.9500001E-04    4.1897109E-23
 -9.9450001E-04    6.0966995E-23
 -9.9400000E-04    7.9543420E-23
 -9.9350000E-04    9.9353402E-23
 -9.9299999E-04    1.0830775E-22
 -9.9249999E-04    1.0319911E-22
 -9.9199999E-04    8.1807015E-23
 -9.9149998E-04    5.6714126E-23
 -9.9099998E-04    3.2793131E-23
 -9.9049998E-04    6.2816102E-24
 -9.8999997E-04   -2.2080285E-23
 -9.8949997E-04   -4.7728237E-23
 -9.8899996E-04   -5.8573055E-23
 -9.8849996E-04   -6.3003121E-23
 -9.8799996E-04   -5.4603753E-23
 -9.8749995E-04   -2.5973411E-23
 -9.8699995E-04    1.5979805E-23
 -9.8649994E-04    7.9150870E-23
 -9.8600006E-04    1.6551352E-22
 -9.8550005E-04    2.7852174E-22
 -9.8500005E-04    3.9547743E-22
 -9.8450005E-04    5.1995799E-22
 -9.8400004E-04    6.1532569E-22
 -9.8350004E-04    6.8404762E-22
 -9.8300003E-04    7.2316321E-22
 -9.8250003E-04    7.0306611E-22
 -9.8200003E-04    5.9809768E-22
 -9.8150002E-04    4.4378528E-22
 -9.8100002E-04    2.2433917E-22
 -9.8050002E-04   -7.8004390E-23
 -9.8000001E-04   -3.8626911E-22
 -9.7950001E-04   -6.7084868E-22
 -9.7900000E-04   -9.8552754E-22
 -9.7850000E-04   -1.2321118E-21
 -9.7800000E-04   -1.4273783E-21
 -9.7749999E-04   -1.5022455E-21
 -9.7699999E-04   -1.4428974E-21
 -9.7649998E-04   -1.1861742E-21
 -9.7599998E-04   -7.5970804E-22
 -9.7549998E-04   -1.4770945E-22
 -9.7499997E-04    5.4323926E-22
 -9.7450003E-04    1.2341878E-21
 -9.7400002E-04    1.9290833E-21
 -9.7350002E-04    2.6180573E-21
 -9.7300002E-04    3.0435347E-21
 -9.7250001E-04    3.3673638E-21
 -9.7200001E-04    3.4069724E-21
 -9.7150001E-04    2.9926177E-21
 -9.7100000E-04    2.2466726E-21
 -9.7050000E-04    1.2007174E-21
 -9.6999999E-04   -1.2945780E-22
 -9.6949999E-04   -1.6491134E-21
 -9.6899999E-04   -3.2635090E-21
 -9.6849998E-04   -4.9489598E-21
 -9.6799998E-04   -6.2870299E-21
 -9.6749997E-04   -7.4356194E-21
 -9.6700003E-04   -8.3848576E-21
 -9.6650003E-04   -8.9393449E-21
 -9.6600002E-04   -8.8464406E-21
 -9.6550002E-04   -8.0271949E-21
 -9.6500001E-04   -6.3237069E-21
 -9.6450001E-04   -3.8938784E-21
 -9.6400001E-04   -9.5876948E-22
 -9.6350000E-04    2.7658385E-21
 -9.6300000E-04    6.8062456E-21
 -9.6249999E-04    1.1194032E-20
 -9.6199999E-04    1.4713365E-20
 -9.6149999E-04    1.7774787E-20
 -9.6099998E-04    1.9845381E-20
 -9.6049998E-04    2.0344866E-20
 -9.5999998E-04    1.8207415E-20
 -9.5949997E-04    1.3796201E-20
 -9.5900003E-04    7.6480853E-21
 -9.5850002E-04    3.6308890E-22
 -9.5800002E-04   -6.9850693E-21
 -9.5750001E-04   -1.4270066E-20
 -9.5700001E-04   -1.9976060E-20
 -9.5650001E-04   -2.4482008E-20
 -9.5600000E-04   -2.7851068E-20
 -9.5550000E-04   -3.0146397E-20
 -9.5500000E-04   -3.0471919E-20
 -9.5449999E-04   -2.8223661E-20
 -9.5399999E-04   -2.2312119E-20
 -9.5349998E-04   -1.3558372E-20
 -9.5299998E-04   -3.6045841E-21
 -9.5249998E-04    7.7387238E-21
 -9.5199997E-04    1.9082029E-20
 -9.5150003E-04    2.7393647E-20
 -9.5100002E-04    3.3936775E-20
 -9.5050002E-04    3.8079806E-20
 -9.5000002E-04    3.5843665E-20
 -9.4950001E-04    2.8207340E-20
 -9.4900001E-04    1.5597158E-20
 -9.4850000E-04   -1.1815912E-21
 -9.4800000E-04   -2.1307809E-20
 -9.4750000E-04   -4.1434036E-20
 -9.4699999E-04   -6.2318172E-20
 -9.4649999E-04   -8.0675901E-20
 -9.4599999E-04   -1.0257058E-19
 -9.4549998E-04   -1.2017037E-19
 -9.4499998E-04   -1.3726488E-19
 -9.4449997E-04   -1.4854865E-19
 -9.4400003E-04   -1.5212688E-19
 -9.4350002E-04   -1.3997823E-19
 -9.4300002E-04   -1.1105665E-19
 -9.4250002E-04   -7.3797939E-20
 -9.4200001E-04   -2.0117643E-20
 -9.4150001E-04    3.5836411E-20
 -9.4100001E-04    9.7853819E-20
 -9.4050000E-04    1.6391343E-19
 -9.4000000E-04    2.3047826E-19
 -9.3949999E-04    2.9603251E-19
 -9.3899999E-04    3.5451281E-19
 -9.3849999E-04    3.9657145E-19
 -9.3799998E-04    4.0705005E-19
 -9.3749998E-04    3.9870687E-19
 -9.3699998E-04    3.5148667E-19
 -9.3649997E-04    2.7900239E-19
 -9.3600003E-04    1.6660103E-19
 -9.3550002E-04    1.9840678E-20
 -9.3500002E-04   -1.4106745E-19
 -9.3450001E-04   -3.0450183E-19
 -9.3400001E-04   -4.6288329E-19
 -9.3350001E-04   -5.9296902E-19
 -9.3300000E-04   -6.8313745E-19
 -9.3250000E-04   -7.1317739E-19
 -9.3200000E-04   -6.8308885E-19
 -9.3149999E-04   -5.8503998E-19
 -9.3099999E-04   -4.2305731E-19
 -9.3049998E-04   -2.2646297E-19
 -9.2999998E-04    1.8638200E-20
 -9.2949998E-04    2.8799275E-19
 -9.2899997E-04    5.5532600E-19
 -9.2850003E-04    8.2164843E-19
 -9.2800002E-04    1.0323899E-18
 -9.2750002E-04    1.1956347E-18
 -9.2700002E-04    1.2921821E-18
 -9.2650001E-04    1.3301167E-18
 -9.2600001E-04    1.2553736E-18
 -9.2550000E-04    1.0709844E-18
 -9.2500000E-04    7.8632880E-19
 -9.2450000E-04    4.2461799E-19
 -9.2399999E-04   -2.9053553E-20
 -9.2349999E-04   -4.9384094E-19
 -9.2299999E-04   -9.2527948E-19
 -9.2249998E-04   -1.3001262E-18
 -9.2199998E-04   -1.6062543E-18
 -9.2149997E-04   -1.8335583E-18
 -9.2100003E-04   -1.9335312E-18
 -9.2050002E-04   -1.9223421E-18
 -9.2000002E-04   -1.7888751E-18
 -9.1950002E-04   -1.4740123E-18
 -9.1900001E-04   -1.0002391E-18
 -9.1850001E-04   -3.8953499E-19
 -9.1800001E-04    4.0610135E-19
 -9.1750000E-04    1.3705008E-18
 -9.1700000E-04    2.4359555E-18
 -9.1649999E-04    3.5761913E-18
 -9.1599999E-04    4.5122926E-18
 -9.1549999E-04    5.2220280E-18
 -9.1499998E-04    5.6043406E-18
 -9.1449998E-04    5.6612522E-18
 -9.1399997E-04    5.3866998E-18
 -9.1349997E-04    4.6634582E-18
 -9.1300003E-04    3.4804112E-18
 -9.1250002E-04    1.8313702E-18
 -9.1200002E-04   -2.2997867E-19
 -9.1150001E-04   -2.5348720E-18
 -9.1100001E-04   -4.9165663E-18
 -9.1050001E-04   -7.1729504E-18
 -9.1000000E-04   -9.1241421E-18
 -9.0950000E-04   -1.0848966E-17
 -9.0899999E-04   -1.2125098E-17
 -9.0849999E-04   -1.2633203E-17
 -9.0799999E-04   -1.2421785E-17
 -9.0749998E-04   -1.1325117E-17
 -9.0699998E-04   -9.3836188E-18
 -9.0649998E-04   -6.6053767E-18
 -9.0599997E-04   -3.1278276E-18
 -9.0550003E-04    8.7925298E-19
 -9.0500002E-04    5.4128321E-18
 -9.0450002E-04    1.0216227E-17
 -9.0400001E-04    1.5203538E-17
 -9.0350001E-04    1.9776514E-17
 -9.0300001E-04    2.3334881E-17
 -9.0250000E-04    2.5494628E-17
 -9.0200000E-04    2.5964713E-17
 -9.0150000E-04    2.4474309E-17
 -9.0099999E-04    2.0946612E-17
 -9.0049999E-04    1.5527148E-17
 -8.9999998E-04    8.4503638E-18
 -8.9949998E-04   -1.5034086E-19
 -8.9899998E-04   -9.2805744E-18
 -8.9849997E-04   -1.8265281E-17
 -8.9800003E-04   -2.6280852E-17
 -8.9750002E-04   -3.3196922E-17
 -8.9700002E-04   -3.8544588E-17
 -8.9650002E-04   -4.1790283E-17
 -8.9600001E-04   -4.2149809E-17
 -8.9550001E-04   -3.9332124E-17
 -8.9500000E-04   -3.3183627E-17
 -8.9450000E-04   -2.3671983E-17
 -8.9400000E-04   -1.1443955E-17
 -8.9349999E-04    2.9668764E-18
 -8.9299999E-04    1.8234654E-17
 -8.9249999E-04    3.3938976E-17
 -8.9199998E-04    4.9198635E-17
 -8.9149998E-04    6.2501827E-17
 -8.9099997E-04    7.2103322E-17
 -8.9050003E-04    7.7622132E-17
 -8.9000002E-04    7.7708153E-17
 -8.8950002E-04    7.2215865E-17
 -8.8900002E-04    6.0741050E-17
 -8.8850001E-04    4.3089691E-17
 -8.8800001E-04    2.0361282E-17
 -8.8750001E-04   -5.8596081E-18
 -8.8700000E-04   -3.3665040E-17
 -8.8650000E-04   -6.1211749E-17
 -8.8599999E-04   -8.6074376E-17
 -8.8549999E-04   -1.0684622E-16
 -8.8499999E-04   -1.2073409E-16
 -8.8449998E-04   -1.2707102E-16
 -8.8399998E-04   -1.2441798E-16
 -8.8349998E-04   -1.1238691E-16
 -8.8299997E-04   -9.1883289E-17
 -8.8250003E-04   -6.3877263E-17
 -8.8200002E-04   -2.8692225E-17
 -8.8150002E-04    1.1343483E-17
 -8.8100001E-04    5.4742307E-17
 -8.8050001E-04    9.7688356E-17
 -8.8000001E-04    1.3746523E-16
 -8.7950000E-04    1.7087148E-16
 -8.7900000E-04    1.9439843E-16
 -8.7850000E-04    2.0781165E-16
 -8.7799999E-04    2.0696378E-16
 -8.7749999E-04    1.9259862E-16
 -8.7699998E-04    1.6465149E-16
 -8.7649998E-04    1.2260501E-16
 -8.7599998E-04    6.7882074E-17
 -8.7549997E-04    1.5175177E-18
 -8.7500003E-04   -7.2090683E-17
 -8.7450002E-04   -1.4854457E-16
 -8.7400002E-04   -2.2215260E-16
 -8.7350002E-04   -2.8392489E-16
 -8.7300001E-04   -3.2981914E-16
 -8.7250001E-04   -3.5391755E-16
 -8.7200000E-04   -3.5065798E-16
 -8.7150000E-04   -3.2126927E-16
 -8.7100000E-04   -2.6148286E-16
 -8.7049999E-04   -1.7026397E-16
 -8.6999999E-04   -5.3433442E-17
 -8.6949999E-04    8.2282389E-17
 -8.6899998E-04    2.2679405E-16
 -8.6849998E-04    3.7001205E-16
 -8.6799997E-04    5.0275244E-16
 -8.6750003E-04    6.1208004E-16
 -8.6700002E-04    6.8635307E-16
 -8.6650002E-04    7.1628261E-16
 -8.6600002E-04    6.9912797E-16
 -8.6550001E-04    6.2699872E-16
 -8.6500001E-04    5.0519835E-16
 -8.6450001E-04    3.2881152E-16
 -8.6400000E-04    1.0637553E-16
 -8.6350000E-04   -1.4632865E-16
 -8.6299999E-04   -4.1533101E-16
 -8.6249999E-04   -6.8640284E-16
 -8.6199999E-04   -9.3289742E-16
 -8.6149998E-04   -1.1342481E-15
 -8.6099998E-04   -1.2741564E-15
 -8.6049997E-04   -1.3432119E-15
 -8.5999997E-04   -1.3250196E-15
 -8.5950003E-04   -1.2217134E-15
 -8.5900002E-04   -1.0141497E-15
 -8.5850002E-04   -7.1371128E-16
 -8.5800001E-04   -3.2945307E-16
 -8.5750001E-04    1.1482416E-16
 -8.5700001E-04    5.9169778E-16
 -8.5650000E-04    1.0608099E-15
 -8.5600000E-04    1.5004293E-15
 -8.5549999E-04    1.8787356E-15
 -8.5499999E-04    2.1608035E-15
 -8.5449999E-04    2.3194693E-15
 -8.5399998E-04    2.3401161E-15
 -8.5349998E-04    2.2118787E-15
 -8.5299998E-04    1.9434239E-15
 -8.5249997E-04    1.5225925E-15
 -8.5200003E-04    9.7551398E-16
 -8.5150002E-04    3.1408874E-16
 -8.5100002E-04   -4.2701673E-16
 -8.5050002E-04   -1.2121012E-15
 -8.5000001E-04   -1.9883889E-15
 -8.4950001E-04   -2.6834427E-15
 -8.4900000E-04   -3.2494028E-15
 -8.4850000E-04   -3.6371150E-15
 -8.4800000E-04   -3.8088086E-15
 -8.4749999E-04   -3.7393900E-15
 -8.4699999E-04   -3.4011780E-15
 -8.4649998E-04   -2.7915855E-15
 -8.4599998E-04   -1.9426921E-15
 -8.4549998E-04   -8.9407980E-16
 -8.4499997E-04    3.1699758E-16
 -8.4450003E-04    1.5865408E-15
 -8.4400002E-04    2.8395255E-15
 -8.4350002E-04    3.9574654E-15
 -8.4300002E-04    4.8922417E-15
 -8.4250001E-04    5.5522726E-15
 -8.4200001E-04    5.8480476E-15
 -8.4150000E-04    5.7645611E-15
 -8.4100000E-04    5.2818942E-15
 -8.4050000E-04    4.3925447E-15
 -8.3999999E-04    3.1306615E-15
 -8.3949999E-04    1.5068524E-15
 -8.3899999E-04   -3.7462383E-16
 -8.3849998E-04   -2.3867436E-15
 -8.3799998E-04   -4.3491906E-15
 -8.3749997E-04   -6.1564121E-15
 -8.3700003E-04   -7.6324902E-15
 -8.3650002E-04   -8.6646312E-15
 -8.3600002E-04   -9.1938489E-15
 -8.3550002E-04   -9.1270112E-15
 -8.3500001E-04   -8.3968553E-15
 -8.3450001E-04   -7.0085569E-15
 -8.3400001E-04   -5.0004035E-15
 -8.3350000E-04   -2.4748441E-15
 -8.3300000E-04    3.9944610E-16
 -8.3249999E-04    3.4935021E-15
 -8.3199999E-04    6.5334857E-15
 -8.3149999E-04    9.2847525E-15
 -8.3099998E-04    1.1583801E-14
 -8.3049998E-04    1.3177100E-14
 -8.2999998E-04    1.4087418E-14
 -8.2949997E-04    1.4174020E-14
 -8.2900003E-04    1.3254778E-14
 -8.2850002E-04    1.1226215E-14
 -8.2800002E-04    8.2766656E-15
 -8.2750001E-04    4.4226898E-15
 -8.2700001E-04   -1.1840037E-16
 -8.2650001E-04   -5.2338090E-15
 -8.2600000E-04   -1.0573766E-14
 -8.2550000E-04   -1.5863011E-14
 -8.2500000E-04   -2.0684511E-14
 -8.2449999E-04   -2.4545695E-14
 -8.2399999E-04   -2.6937438E-14
 -8.2349998E-04   -2.7690027E-14
 -8.2299998E-04   -2.6650313E-14
 -8.2249998E-04   -2.3702396E-14
 -8.2199997E-04   -1.8809027E-14
 -8.2150003E-04   -1.2181309E-14
 -8.2100002E-04   -4.1793605E-15
 -8.2050002E-04    4.6876874E-15
 -8.2000002E-04    1.3801013E-14
 -8.1950001E-04    2.2751862E-14
 -8.1900001E-04    3.0816902E-14
 -8.1850000E-04    3.7366953E-14
 -8.1800000E-04    4.1532783E-14
 -8.1750000E-04    4.2974969E-14
 -8.1699999E-04    4.1420321E-14
 -8.1649999E-04    3.6413526E-14
 -8.1599999E-04    2.8327120E-14
 -8.1549998E-04    1.7823384E-14
 -8.1499998E-04    5.6639488E-15
 -8.1449997E-04   -7.5716868E-15
 -8.1400003E-04   -2.1043248E-14
 -8.1350002E-04   -3.3496538E-14
 -8.1300002E-04   -4.3981589E-14
 -8.1250002E-04   -5.1138662E-14
 -8.1200001E-04   -5.5389958E-14
 -8.1150001E-04   -5.5568201E-14
 -8.1100001E-04   -5.1954870E-14
 -8.1050000E-04   -4.4235377E-14
 -8.1000000E-04   -3.2939563E-14
 -8.0949999E-04   -1.8580691E-14
 -8.0899999E-04   -1.7382724E-15
 -8.0849999E-04    1.6205177E-14
 -8.0799998E-04    3.4355572E-14
 -8.0749998E-04    5.1607722E-14
 -8.0699997E-04    6.6773660E-14
 -8.0649997E-04    7.8197675E-14
 -8.0600003E-04    8.5647974E-14
 -8.0550002E-04    8.7518521E-14
 -8.0500002E-04    8.3544418E-14
 -8.0450001E-04    7.3129619E-14
 -8.0400001E-04    5.6704604E-14
 -8.0350001E-04    3.5461499E-14
 -8.0300000E-04    9.7811147E-15
 -8.0250000E-04   -1.8747055E-14
 -8.0200000E-04   -4.8417630E-14
 -8.0149999E-04   -7.7367942E-14
 -8.0099999E-04   -1.0373272E-13
 -8.0049998E-04   -1.2511380E-13
 -7.9999998E-04   -1.4048463E-13
 -7.9949998E-04   -1.4863656E-13
 -7.9899997E-04   -1.4725158E-13
 -7.9850003E-04   -1.3762118E-13
 -7.9800002E-04   -1.1848703E-13
 -7.9750002E-04   -9.1306160E-14
 -7.9700002E-04   -5.6740857E-14
 -7.9650001E-04   -1.5287854E-14
 -7.9600001E-04    3.0122240E-14
 -7.9550000E-04    7.7320447E-14
 -7.9500000E-04    1.2325198E-13
 -7.9450000E-04    1.6516835E-13
 -7.9399999E-04    2.0029627E-13
 -7.9349999E-04    2.2666543E-13
 -7.9299998E-04    2.4084855E-13
 -7.9249998E-04    2.4307742E-13
 -7.9199998E-04    2.2994131E-13
 -7.9149997E-04    2.0259925E-13
 -7.9100003E-04    1.6115059E-13
 -7.9050002E-04    1.0887366E-13
 -7.9000002E-04    4.8318256E-14
 -7.8950002E-04   -1.7038612E-14
 -7.8900001E-04   -8.4498130E-14
 -7.8850001E-04   -1.4736709E-13
 -7.8800000E-04   -2.0388631E-13
 -7.8750000E-04   -2.4808695E-13
 -7.8700000E-04   -2.7579667E-13
 -7.8649999E-04   -2.8360471E-13
 -7.8599999E-04   -2.7220652E-13
 -7.8549999E-04   -2.4127095E-13
 -7.8499998E-04   -1.8963908E-13
 -7.8449998E-04   -1.2032432E-13
 -7.8399997E-04   -3.6836823E-14
 -7.8350003E-04    5.3770095E-14
 -7.8300002E-04    1.4609882E-13
 -7.8250002E-04    2.3442056E-13
 -7.8200002E-04    3.1080447E-13
 -7.8150001E-04    3.6894858E-13
 -7.8100001E-04    4.0222380E-13
 -7.8050001E-04    4.1006724E-13
 -7.8000000E-04    3.8535944E-13
 -7.7950000E-04    3.2581557E-13
 -7.7899999E-04    2.3011112E-13
 -7.7849999E-04    1.0447161E-13
 -7.7799999E-04   -4.2625700E-14
 -7.7749998E-04   -1.9906101E-13
 -7.7699998E-04   -3.5258206E-13
 -7.7649998E-04   -4.9245986E-13
 -7.7599997E-04   -6.0760121E-13
 -7.7550003E-04   -6.8591937E-13
 -7.7500002E-04   -7.2244733E-13
 -7.7450002E-04   -7.0983378E-13
 -7.7400001E-04   -6.4769593E-13
 -7.7350001E-04   -5.3822132E-13
 -7.7300001E-04   -3.8328116E-13
 -7.7250000E-04   -1.9443227E-13
 -7.7200000E-04    1.7728781E-14
 -7.7150000E-04    2.3982379E-13
 -7.7099999E-04    4.5337505E-13
 -7.7049999E-04    6.4705744E-13
 -7.6999998E-04    8.0729423E-13
 -7.6949998E-04    9.2183314E-13
 -7.6899998E-04    9.7703128E-13
 -7.6849997E-04    9.7712734E-13
 -7.6800003E-04    9.1516736E-13
 -7.6750002E-04    7.9297262E-13
 -7.6700002E-04    6.1777932E-13
 -7.6650002E-04    3.9857747E-13
 -7.6600001E-04    1.3765211E-13
 -7.6550001E-04   -1.5671808E-13
 -7.6500000E-04   -4.6102206E-13
 -7.6450000E-04   -7.4347028E-13
 -7.6400000E-04   -9.9306869E-13
 -7.6349999E-04   -1.1936577E-12
 -7.6299999E-04   -1.3268260E-12
 -7.6249999E-04   -1.3856858E-12
 -7.6199998E-04   -1.3618925E-12
 -7.6149998E-04   -1.2473663E-12
 -7.6099997E-04   -1.0439618E-12
 -7.6050003E-04   -7.5153029E-13
 -7.6000002E-04   -3.9965920E-13
 -7.5950002E-04   -4.7402357E-15
 -7.5900002E-04    4.1362297E-13
 -7.5850001E-04    8.2324333E-13
 -7.5800001E-04    1.1963050E-12
 -7.5750001E-04    1.5113500E-12
 -7.5700000E-04    1.7516889E-12
 -7.5650000E-04    1.8950690E-12
 -7.5599999E-04    1.9160587E-12
 -7.5549999E-04    1.8024725E-12
 -7.5499999E-04    1.5464952E-12
 -7.5449998E-04    1.1617043E-12
 -7.5399998E-04    6.8877228E-13
 -7.5349997E-04    1.4762569E-13
 -7.5299997E-04   -4.2530972E-13
 -7.5250003E-04   -1.0048669E-12
 -7.5200002E-04   -1.5409774E-12
 -7.5150002E-04   -2.0082096E-12
 -7.5100001E-04   -2.3758330E-12
 -7.5050001E-04   -2.6057012E-12
 -7.5000001E-04   -2.6845681E-12
 -7.4950000E-04   -2.5986587E-12
 -7.4900000E-04   -2.3590992E-12
 -7.4850000E-04   -1.9770166E-12
 -7.4799999E-04   -1.4591664E-12
 -7.4749999E-04   -8.3985515E-13
 -7.4699998E-04   -1.7206555E-13
 -7.4649998E-04    4.9651781E-13
 -7.4599998E-04    1.1460262E-12