 -1.2000001E-03    1.0000000E-24
 -1.1995001E-03    1.0000000E-24
 -1.1990000E-03    1.0000000E-24
 -1.1985000E-03    1.0000000E-24
 -1.1980000E-03    1.0000000E-24
 -1.1975000E-03    1.0000000E-24
 -1.1970000E-03    1.0000000E-24
 -1.1965000E-03    1.0000000E-24
 -1.1960000E-03    1.0000001E-24
 -1.1955000E-03    1.0000001E-24
 -1.1950000E-03    1.0000001E-24
 -1.1945000E-03    1.0000001E-24
 -1.1940000E-03    1.0000001E-24
 -1.1935000E-03    1.0000001E-24
 -1.1930000E-03    1.0000001E-24
 -1.1925000E-03    1.0000001E-24
 -1.1920000E-03    1.0000001E-24
 -1.1915000E-03    1.0000001E-24
 -1.1910000E-03    1.0000001E-24
 -1.1905000E-03    1.0000001E-24
 -1.1900000E-03    1.0000001E-24
 -1.1895000E-03    1.0000001E-24
 -1.1890000E-03    1.0000001E-24
 -1.1885000E-03    1.0000001E-24
 -1.1880000E-03    1.0000001E-24
 -1.1875000E-03    1.0000001E-24
 -1.1870000E-03    1.0000002E-24
 -1.1865000E-03    1.0000002E-24
 -1.1860000E-03    1.0000002E-24
 -1.1854999E-03    1.0000002E-24
 -1.1849999E-03    1.0000002E-24
 -1.1845001E-03    1.0000002E-24
 -1.1840001E-03    1.0000002E-24
 -1.1835000E-03    1.0000002E-24
 -1.1830000E-03    1.0000002E-24
 -1.1825000E-03    1.0000002E-24
 -1.1820000E-03    1.0000002E-24
 -1.1815000E-03    1.0000001E-24
 -1.1810000E-03    1.0000001E-24
 -1.1805000E-03    1.0000001E-24
 -1.1800000E-03    1.0000001E-24
 -1.1795000E-03    1.0000001E-24
 -1.1790000E-03    1.0000001E-24
 -1.1785000E-03    1.0000001E-24
 -1.1780000E-03    1.0000001E-24
 -1.1775000E-03    1.0000001E-24
 -1.1770000E-03    1.0000001E-24
 -1.1765000E-03    1.0000001E-24
 -1.1760000E-03    1.0000001E-24
 -1.1755000E-03    1.0000001E-24
 -1.1750000E-03    1.0000001E-24
 -1.1745000E-03    1.0000001E-24
 -1.1740000E-03    1.0000001E-24
 -1.1735000E-03    1.0000001E-24
 -1.1730000E-03    1.0000001E-24
 -1.1725000E-03    1.0000001E-24
 -1.1720000E-03    1.0000002E-24
 -1.1715000E-03    1.0000003E-24
 -1.1710000E-03    1.0000003E-24
 -1.1704999E-03    1.0000003E-24
 -1.1699999E-03    1.0000003E-24
 -1.1695001E-03    1.0000003E-24
 -1.1690001E-03    1.0000003E-24
 -1.1685000E-03    1.0000003E-24
 -1.1680000E-03    1.0000003E-24
 -1.1675000E-03    1.0000003E-24
 -1.1670000E-03    1.0000003E-24
 -1.1665000E-03    1.0000003E-24
 -1.1660000E-03    1.0000003E-24
 -1.1655000E-03    1.0000003E-24
 -1.1650000E-03    1.0000003E-24
 -1.1645000E-03    1.0000003E-24
 -1.1640000E-03    1.0000003E-24
 -1.1635000E-03    1.0000003E-24
 -1.1630000E-03    1.0000003E-24
 -1.1625000E-03    1.0000003E-24
 -1.1620000E-03    1.0000003E-24
 -1.1615000E-03    1.0000003E-24
 -1.1610000E-03    1.0000003E-24
 -1.1605000E-03    1.0000003E-24
 -1.1600000E-03    1.0000003E-24
 -1.1595000E-03    1.0000003E-24
 -1.1590000E-03    1.0000002E-24
 -1.1585000E-03    1.0000001E-24
 -1.1580000E-03    1.0000000E-24
 -1.1575000E-03    9.9999992E-25
 -1.1570000E-03    9.9999982E-25
 -1.1565000E-03    9.9999972E-25
 -1.1560000E-03    9.9999963E-25
 -1.1555000E-03    9.9999953E-25
 -1.1549999E-03    9.9999943E-25
 -1.1544999E-03    9.9999943E-25
 -1.1540001E-03    9.9999943E-25
 -1.1535001E-03    9.9999953E-25
 -1.1530000E-03    9.9999963E-25
 -1.1525000E-03    9.9999982E-25
 -1.1520000E-03    1.0000000E-24
 -1.1515000E-03    1.0000002E-24
 -1.1510000E-03    1.0000004E-24
 -1.1505000E-03    1.0000005E-24
 -1.1500000E-03    1.0000006E-24
 -1.1495000E-03    1.0000005E-24
 -1.1490000E-03    1.0000002E-24
 -1.1485000E-03    9.9999982E-25
 -1.1480000E-03    9.9999963E-25
 -1.1475000E-03    9.9999933E-25
 -1.1470000E-03    9.9999933E-25
 -1.1465000E-03    1.0000003E-24
 -1.1460000E-03    1.0000034E-24
 -1.1455000E-03    1.0000062E-24
 -1.1450000E-03    1.0000072E-24
 -1.1445000E-03    1.0000079E-24
 -1.1440000E-03    1.0000086E-24
 -1.1435000E-03    1.0000052E-24
 -1.1430000E-03    1.0000004E-24
 -1.1425000E-03    9.9999371E-25
 -1.1420000E-03    9.9998276E-25
 -1.1415000E-03    9.9996284E-25
 -1.1410000E-03    9.9994579E-25
 -1.1405000E-03    9.9997852E-25
 -1.1399999E-03    1.0000132E-24
 -1.1394999E-03    1.0001298E-24
 -1.1390001E-03    1.0002285E-24
 -1.1385001E-03    1.0002283E-24
 -1.1380001E-03    1.0002385E-24
 -1.1375000E-03    1.0001601E-24
 -1.1370000E-03    1.0000477E-24
 -1.1365000E-03    9.9998247E-25
 -1.1360000E-03    9.9996620E-25
 -1.1355000E-03    9.9979935E-25
 -1.1350000E-03    9.9964000E-25
 -1.1345000E-03    1.0001131E-24
 -1.1340000E-03    1.0007971E-24
 -1.1335000E-03    1.0005172E-24
 -1.1330000E-03    9.9980073E-25
 -1.1325000E-03    9.9935522E-25
 -1.1320000E-03    9.9987351E-25
 -1.1315000E-03    1.0011071E-24
 -1.1310000E-03    1.0030954E-24
 -1.1305000E-03    1.0056560E-24
 -1.1300000E-03    1.0081562E-24
 -1.1295000E-03    1.0115602E-24
 -1.1290000E-03    1.0171324E-24
 -1.1285000E-03    1.0216204E-24
 -1.1280000E-03    1.0252652E-24
 -1.1275000E-03    1.0245731E-24
 -1.1270000E-03    1.0197852E-24
 -1.1265000E-03    1.0243938E-24
 -1.1260000E-03    1.0246654E-24
 -1.1255000E-03    1.0236120E-24
 -1.1250000E-03    1.0159328E-24
 -1.1244999E-03    1.0078319E-24
 -1.1239999E-03    9.8117918E-25
 -1.1235001E-03    9.5500832E-25
 -1.1230001E-03    9.2450051E-25
 -1.1225000E-03    8.7568175E-25
 -1.1220000E-03    8.3842780E-25
 -1.1215000E-03    8.2044867E-25
 -1.1210000E-03    8.1403444E-25
 -1.1205000E-03    8.1533010E-25
 -1.1200000E-03    8.5903038E-25
 -1.1195000E-03    9.4320775E-25
 -1.1190000E-03    1.0534061E-24
 -1.1185000E-03    1.2354031E-24
 -1.1180000E-03    1.4790795E-24
 -1.1175000E-03    1.7516680E-24
 -1.1170000E-03    1.9779967E-24
 -1.1165000E-03    2.0616919E-24
 -1.1160000E-03    1.8986697E-24
 -1.1155000E-03    1.4580903E-24
 -1.1150000E-03    1.1562892E-24
 -1.1145000E-03    1.2708237E-24
 -1.1140000E-03    9.6131270E-25
 -1.1135000E-03    7.9829021E-25
 -1.1130000E-03    8.5885555E-25
 -1.1125000E-03    1.5246496E-24
 -1.1120000E-03    2.2304387E-24
 -1.1115000E-03    4.3085938E-24
 -1.1110000E-03    6.8185042E-24
 -1.1105000E-03    9.2975762E-24
 -1.1100000E-03    1.2146724E-23
 -1.1094999E-03    1.4379077E-23
 -1.1089999E-03    1.6303036E-23
 -1.1084999E-03    1.4464552E-23
 -1.1080001E-03    1.2317672E-23
 -1.1075001E-03    9.4306381E-24
 -1.1070000E-03    5.9268114E-24
 -1.1065000E-03    6.3428228E-25
 -1.1060000E-03   -4.2727519E-24
 -1.1055000E-03   -1.1569861E-23
 -1.1050000E-03   -2.3739639E-23
 -1.1045000E-03   -3.6464531E-23
 -1.1040000E-03   -4.8449265E-23
 -1.1035000E-03   -5.8090190E-23
 -1.1030000E-03   -6.6250811E-23
 -1.1025000E-03   -6.9230351E-23
 -1.1020000E-03   -6.8262412E-23
 -1.1015000E-03   -6.6060891E-23
 -1.1010000E-03   -6.9287149E-23
 -1.1005000E-03   -6.5111885E-23
 -1.1000000E-03   -5.7297536E-23
 -1.0995000E-03   -3.9830373E-23
 -1.0990000E-03   -1.8662448E-23
 -1.0985000E-03    4.4792220E-24
 -1.0980000E-03    3.2555245E-23
 -1.0975000E-03    6.7539361E-23
 -1.0970000E-03    1.0795125E-22
 -1.0965000E-03    1.6119245E-22
 -1.0960000E-03    2.1936801E-22
 -1.0955000E-03    2.6964856E-22
 -1.0950000E-03    2.9130987E-22
 -1.0945000E-03    3.1938585E-22
 -1.0939999E-03    3.3685295E-22
 -1.0934999E-03    3.4303269E-22
 -1.0930001E-03    3.0973766E-22
 -1.0925001E-03    2.4584962E-22
 -1.0920000E-03    1.5531616E-22
 -1.0915000E-03    2.9255396E-23
 -1.0910000E-03   -1.6391246E-22
 -1.0905000E-03   -3.6694904E-22
 -1.0900000E-03   -5.9169667E-22
 -1.0895000E-03   -7.1578361E-22
 -1.0890000E-03   -8.1026425E-22
 -1.0885000E-03   -9.9948439E-22
 -1.0880000E-03   -1.2291661E-21
 -1.0875000E-03   -1.2797308E-21
 -1.0870000E-03   -1.1062760E-21
 -1.0865000E-03   -7.2360477E-22
 -1.0860000E-03   -2.1461419E-22
 -1.0855000E-03    4.8385532E-22
 -1.0850000E-03    1.3718038E-21
 -1.0845000E-03    2.3544919E-21
 -1.0840000E-03    3.2898098E-21
 -1.0835000E-03    3.7237979E-21
 -1.0830000E-03    3.7748799E-21
 -1.0825000E-03    3.4114766E-21
 -1.0820000E-03    2.5793101E-21
 -1.0815000E-03    1.0405446E-21
 -1.0810000E-03   -4.7848390E-22
 -1.0805000E-03   -2.0211974E-21
 -1.0800000E-03   -3.1375835E-21
 -1.0795000E-03   -3.8592216E-21
 -1.0790000E-03   -3.9334732E-21
 -1.0784999E-03   -3.8024564E-21
 -1.0779999E-03   -3.6082790E-21
 -1.0775001E-03   -2.5140761E-21
 -1.0770001E-03   -7.8827596E-22
 -1.0765000E-03    1.5533308E-21
 -1.0760000E-03    4.6331158E-21
 -1.0755000E-03    8.1944938E-21
 -1.0750000E-03    1.1424282E-20
 -1.0745000E-03    1.5175137E-20
 -1.0740000E-03    1.7773329E-20
 -1.0735000E-03    1.9455703E-20
 -1.0730000E-03    1.9874880E-20
 -1.0725000E-03    1.7736093E-20
 -1.0720000E-03    1.3907785E-20
 -1.0715000E-03    8.8715468E-21
 -1.0710000E-03    2.3905324E-21
 -1.0705000E-03   -5.2431449E-21
 -1.0700000E-03   -1.4897928E-20
 -1.0695000E-03   -2.3731632E-20
 -1.0690000E-03   -3.1681095E-20
 -1.0685000E-03   -3.9314757E-20
 -1.0680000E-03   -4.4358872E-20
 -1.0675000E-03   -4.3592295E-20
 -1.0670000E-03   -3.9288775E-20
 -1.0665000E-03   -3.1922015E-20
 -1.0660000E-03   -2.1334112E-20
 -1.0655000E-03   -5.9302892E-21
 -1.0650000E-03    1.1526217E-20
 -1.0645000E-03    3.1003831E-20
 -1.0640000E-03    5.2060431E-20
 -1.0634999E-03    7.4885494E-20
 -1.0629999E-03    9.5942094E-20
 -1.0625001E-03    1.1687237E-19
 -1.0620001E-03    1.3237092E-19
 -1.0615001E-03    1.3833235E-19
 -1.0610000E-03    1.3507248E-19
 -1.0605000E-03    1.2533875E-19
 -1.0600000E-03    1.0789954E-19
 -1.0595000E-03    7.6438894E-20
 -1.0590000E-03    4.1820281E-20
 -1.0585000E-03    1.0233319E-20
 -1.0580000E-03   -1.8574627E-20
 -1.0575000E-03   -5.2940616E-20
 -1.0570000E-03   -8.7053961E-20
 -1.0565000E-03   -1.1333551E-19
 -1.0560000E-03   -1.2294289E-19
 -1.0555000E-03   -1.2345527E-19
 -1.0550000E-03   -1.0110384E-19
 -1.0545000E-03   -6.1768394E-20
 -1.0540000E-03   -3.9903290E-21
 -1.0535000E-03    6.0608958E-20
 -1.0530000E-03    1.4895625E-19
 -1.0525000E-03    2.6711492E-19
 -1.0520000E-03    3.9285273E-19
 -1.0515000E-03    5.1859055E-19
 -1.0510000E-03    6.5342336E-19
 -1.0505000E-03    7.4177070E-19
 -1.0500000E-03    7.9171690E-19
 -1.0495000E-03    8.1387283E-19
 -1.0490000E-03    7.8550100E-19
 -1.0485000E-03    7.1822278E-19
 -1.0479999E-03    6.7469255E-19
 -1.0474999E-03    6.1815140E-19
 -1.0470001E-03    5.2144065E-19
 -1.0465001E-03    3.9062374E-19
 -1.0460000E-03    1.6582538E-19
 -1.0455000E-03   -1.6103887E-19
 -1.0450000E-03   -5.2226183E-19
 -1.0445000E-03   -9.9262459E-19
 -1.0440000E-03   -1.4912827E-18
 -1.0435000E-03   -1.9394128E-18
 -1.0430000E-03   -2.2986144E-18
 -1.0425000E-03   -2.4233668E-18
 -1.0420000E-03   -2.3116497E-18
 -1.0415000E-03   -2.0342015E-18
 -1.0410000E-03   -1.4091227E-18
 -1.0405000E-03   -6.0618665E-19
 -1.0400000E-03    5.7671787E-19
 -1.0395000E-03    1.8081289E-18
 -1.0390000E-03    3.0082127E-18
 -1.0385000E-03    3.9718268E-18
 -1.0380000E-03    4.5312189E-18
 -1.0375000E-03    4.4115184E-18
 -1.0370000E-03    3.5803872E-18
 -1.0365000E-03    2.4258786E-18
 -1.0360000E-03    9.1565451E-19
 -1.0355000E-03   -1.0472978E-18
 -1.0350000E-03   -2.8970673E-18
 -1.0345000E-03   -5.1995655E-18
 -1.0340000E-03   -7.7122573E-18
 -1.0335000E-03   -9.8773182E-18
 -1.0329999E-03   -1.1432004E-17
 -1.0324999E-03   -1.1838700E-17
 -1.0319999E-03   -1.1841173E-17
 -1.0315001E-03   -1.1617283E-17
 -1.0310001E-03   -1.0293909E-17
 -1.0305000E-03   -6.3511771E-18
 -1.0300000E-03    6.9597803E-19
 -1.0295000E-03    7.5491059E-18
 -1.0290000E-03    1.5372363E-17
 -1.0285000E-03    2.1966784E-17
 -1.0280000E-03    2.9531337E-17
 -1.0275000E-03    3.8260041E-17
 -1.0270000E-03    4.5258674E-17
 -1.0265000E-03    5.1610555E-17
 -1.0260000E-03    5.7024640E-17
 -1.0255000E-03    5.7070658E-17
 -1.0250000E-03    5.2848093E-17
 -1.0245000E-03    4.4227597E-17
 -1.0240000E-03    3.5865810E-17
 -1.0235000E-03    2.8150783E-17
 -1.0230000E-03    2.2764078E-17
 -1.0225000E-03    1.6730616E-17
 -1.0220000E-03    1.3025474E-17
 -1.0215000E-03    1.4235663E-17
 -1.0210000E-03    1.7644810E-17
 -1.0205000E-03    2.0002978E-17
 -1.0200000E-03    2.1714381E-17
 -1.0195000E-03    2.3813835E-17
 -1.0190000E-03    1.6341314E-17
 -1.0185000E-03    9.9035952E-18
 -1.0180000E-03    3.4658746E-18
 -1.0174999E-03   -6.5936825E-18
 -1.0169999E-03   -1.7170632E-17
 -1.0165001E-03   -2.7230169E-17
 -1.0160001E-03   -4.1946316E-17
 -1.0155000E-03   -5.0971008E-17
 -1.0150000E-03   -5.5468419E-17
 -1.0145000E-03   -6.8486783E-17
 -1.0140000E-03   -8.6161760E-17
 -1.0135000E-03   -8.7279790E-17
 -1.0130000E-03   -8.1671559E-17
 -1.0125000E-03   -6.5715258E-17
 -1.0120000E-03   -2.0784360E-17
 -1.0115000E-03    4.1738270E-17
 -1.0110000E-03    1.1771339E-16
 -1.0105000E-03    2.1231499E-16
 -1.0100000E-03    2.8828999E-16
 -1.0095000E-03    3.3735994E-16
 -1.0090000E-03    3.5538559E-16
 -1.0085000E-03    3.4239933E-16
 -1.0080000E-03    2.8595104E-16
 -1.0075000E-03    2.0570219E-16
 -1.0070000E-03    1.0993120E-16
 -1.0065000E-03   -2.3092833E-17
 -1.0060000E-03   -1.9543951E-16
 -1.0055000E-03   -3.9055191E-16
 -1.0050000E-03   -5.7738562E-16
 -1.0045000E-03   -7.5594085E-16
 -1.0040000E-03   -8.9724294E-16
 -1.0035000E-03   -9.7231727E-16
 -1.0030000E-03   -1.0194516E-15
 -1.0025000E-03   -1.0376110E-15
 -1.0019999E-03   -1.0650838E-15
 -1.0014999E-03   -1.0035632E-15
 -1.0010001E-03   -8.3442253E-16
 -1.0005001E-03   -6.1975034E-16
 -1.0000000E-03   -2.7676206E-16
 -9.9950004E-04    5.3808469E-17
 -9.9900004E-04    4.2991030E-16
 -9.9850004E-04    7.4392357E-16
 -9.9800003E-04    9.8756969E-16
 -9.9750003E-04    1.2167282E-15
 -9.9700002E-04    1.2710037E-15
 -9.9650002E-04    1.1523371E-15
 -9.9600002E-04    8.1636045E-16
 -9.9550001E-04    2.9411853E-16
 -9.9500001E-04   -2.8607259E-16
 -9.9450001E-04   -9.6560528E-16
 -9.9400000E-04   -1.6948086E-15
 -9.9350000E-04   -2.2667205E-15
 -9.9299999E-04   -2.9296951E-15
 -9.9249999E-04   -3.2863657E-15
 -9.9199999E-04   -3.4691878E-15
 -9.9149998E-04   -3.3043136E-15
 -9.9099998E-04   -2.8269269E-15
 -9.9049998E-04   -2.0412317E-15
 -9.8999997E-04   -8.4161358E-16
 -9.8949997E-04    8.0504124E-16
 -9.8899996E-04    2.7331638E-15
 -9.8849996E-04    4.9344747E-15
 -9.8799996E-04    6.8874311E-15
 -9.8749995E-04    8.3602364E-15
 -9.8699995E-04    9.5019021E-15
 -9.8649994E-04    1.0130302E-14
 -9.8600006E-04    1.0353057E-14
 -9.8550005E-04    1.0112216E-14
 -9.8500005E-04    9.3912237E-15
 -9.8450005E-04    7.7030074E-15
 -9.8400004E-04    5.4725520E-15
 -9.8350004E-04    2.5798188E-15
 -9.8300003E-04   -8.2617905E-16
 -9.8250003E-04   -3.9010382E-15
 -9.8200003E-04   -7.2573639E-15
 -9.8150002E-04   -1.0299107E-14
 -9.8100002E-04   -1.3258064E-14
 -9.8050002E-04   -1.5836209E-14
 -9.8000001E-04   -1.7752074E-14
 -9.7950001E-04   -1.8939433E-14
 -9.7900000E-04   -1.9431398E-14
 -9.7850000E-04   -1.9114142E-14
 -9.7800000E-04   -1.7919367E-14
 -9.7749999E-04   -1.5565606E-14
 -9.7699999E-04   -1.1804506E-14
 -9.7649998E-04   -6.8181947E-15
 -9.7599998E-04   -1.3020619E-15
 -9.7549998E-04    4.2471829E-15
 -9.7499997E-04    1.0127563E-14
 -9.7450003E-04    1.4451590E-14
 -9.7400002E-04    1.7583515E-14
 -9.7350002E-04    1.9142528E-14
 -9.7300002E-04    1.8847161E-14
 -9.7250001E-04    1.6366279E-14
 -9.7200001E-04    1.1848894E-14
 -9.7150001E-04    4.8479664E-15
 -9.7100000E-04   -3.2126033E-15
 -9.7050000E-04   -1.1074487E-14
 -9.6999999E-04   -1.9863560E-14
 -9.6949999E-04   -2.7626098E-14
 -9.6899999E-04   -3.4527672E-14
 -9.6849998E-04   -4.0270257E-14
 -9.6799998E-04   -4.3595525E-14
 -9.6749997E-04   -4.3990216E-14
 -9.6700003E-04   -4.0576808E-14
 -9.6650003E-04   -3.3015884E-14
 -9.6600002E-04   -2.2191435E-14
 -9.6550002E-04   -8.3701814E-15
 -9.6500001E-04    7.4544625E-15
 -9.6450001E-04    2.5282494E-14
 -9.6400001E-04    4.3209858E-14
 -9.6350000E-04    5.8653677E-14
 -9.6300000E-04    7.2872271E-14
 -9.6249999E-04    8.2454917E-14
 -9.6199999E-04    8.5282326E-14
 -9.6149999E-04    8.1486955E-14
 -9.6099998E-04    6.9578681E-14
 -9.6049998E-04    5.0981392E-14
 -9.5999998E-04    2.5678541E-14
 -9.5949997E-04   -4.5251634E-15
 -9.5900003E-04   -3.8512122E-14
 -9.5850002E-04   -7.4568681E-14
 -9.5800002E-04   -1.0781211E-13
 -9.5750001E-04   -1.3637819E-13
 -9.5700001E-04   -1.5880163E-13
 -9.5650001E-04   -1.7494995E-13
 -9.5600000E-04   -1.7927662E-13
 -9.5550000E-04   -1.7456318E-13
 -9.5500000E-04   -1.5746511E-13
 -9.5449999E-04   -1.3149251E-13
 -9.5399999E-04   -9.7638823E-14
 -9.5349998E-04   -5.7890853E-14
 -9.5299998E-04   -1.3506952E-14
 -9.5249998E-04    2.8492738E-14
 -9.5199997E-04    6.8439341E-14
 -9.5150003E-04    1.0090218E-13
 -9.5100002E-04    1.2432489E-13
 -9.5050002E-04    1.4355040E-13
 -9.5000002E-04    1.5024226E-13
 -9.4950001E-04    1.5209943E-13
 -9.4900001E-04    1.4660530E-13
 -9.4850000E-04    1.3766728E-13
 -9.4800000E-04    1.1972228E-13
 -9.4750000E-04    9.5419386E-14
 -9.4699999E-04    7.0586664E-14
 -9.4649999E-04    4.0985570E-14
 -9.4599999E-04    1.1914329E-14
 -9.4549998E-04   -2.8283113E-14
 -9.4499998E-04   -7.2454148E-14
 -9.4449997E-04   -1.2424130E-13
 -9.4400003E-04   -1.7237759E-13
 -9.4350002E-04   -2.1687127E-13
 -9.4300002E-04   -2.5447718E-13
 -9.4250002E-04   -2.8228136E-13
 -9.4200001E-04   -2.9366101E-13
 -9.4150001E-04   -2.8861616E-13
 -9.4100001E-04   -2.5919948E-13
 -9.4050000E-04   -2.0223206E-13
 -9.4000000E-04   -1.1506487E-13
 -9.3949999E-04   -5.1154043E-15
 -9.3899999E-04    1.2682157E-13
 -9.3849999E-04    2.6935482E-13
 -9.3799998E-04    4.2592823E-13
 -9.3749998E-04    5.7309713E-13
 -9.3699998E-04    6.9536428E-13
 -9.3649997E-04    7.9061036E-13
 -9.3600003E-04    8.4294079E-13
 -9.3550002E-04    8.4440826E-13
 -9.3500002E-04    7.9501282E-13
 -9.3450001E-04    6.7885996E-13
 -9.3400001E-04    4.9912852E-13
 -9.3350001E-04    2.5952737E-13
 -9.3300000E-04   -3.9413686E-14
 -9.3250000E-04   -3.6325622E-13
 -9.3200000E-04   -6.9650286E-13
 -9.3149999E-04   -1.0123976E-12
 -9.3099999E-04   -1.3028608E-12
 -9.3049998E-04   -1.5122610E-12
 -9.2999998E-04   -1.6379494E-12
 -9.2949998E-04   -1.6566136E-12
 -9.2899997E-04   -1.5544784E-12
 -9.2850003E-04   -1.3188282E-12
 -9.2800002E-04   -9.8357151E-13
 -9.2750002E-04   -5.4764879E-13
 -9.2700002E-04   -1.9537294E-14
 -9.2650001E-04    5.3983348E-13
 -9.2600001E-04    1.0652954E-12
 -9.2550000E-04    1.5256221E-12
 -9.2500000E-04    1.8942894E-12
 -9.2450000E-04    2.0965922E-12
 -9.2399999E-04    2.1770359E-12
 -9.2349999E-04    2.1027715E-12
 -9.2299999E-04    1.8568445E-12
 -9.2249998E-04    1.4180625E-12
 -9.2199998E-04    8.6271967E-13
 -9.2149997E-04    1.9293558E-13
 -9.2100003E-04   -5.1393590E-13
 -9.2050002E-04   -1.2356419E-12
 -9.2000002E-04   -1.9388039E-12
 -9.1950002E-04   -2.5355378E-12
 -9.1900001E-04   -3.0067034E-12
 -9.1850001E-04   -3.2436874E-12
 -9.1800001E-04   -3.3047703E-12
 -9.1750000E-04   -3.1390890E-12
 -9.1700000E-04   -2.6661110E-12
 -9.1649999E-04   -1.9324603E-12
 -9.1599999E-04   -1.0271476E-12
 -9.1549999E-04    1.1680423E-14
 -9.1499998E-04    1.0971325E-12
 -9.1449998E-04    2.2080157E-12
 -9.1399997E-04    3.2055161E-12
 -9.1349997E-04    4.0171816E-12
 -9.1300003E-04    4.5056545E-12
 -9.1250002E-04    4.7006054E-12
 -9.1200002E-04    4.6581957E-12
 -9.1150001E-04    4.2703415E-12
 -9.1100001E-04    3.5434010E-12
 -9.1050001E-04    2.5239988E-12
 -9.1000000E-04    1.2418049E-12
 -9.0950000E-04   -2.1417030E-13
 -9.0899999E-04   -1.7422007E-12
 -9.0849999E-04   -3.2024132E-12
 -9.0799999E-04   -4.5079166E-12
 -9.0749998E-04   -5.5601639E-12
 -9.0699998E-04   -6.2590189E-12
 -9.0649998E-04   -6.5371940E-12
 -9.0599997E-04   -6.4635667E-12
 -9.0550003E-04   -6.0084672E-12
 -9.0500002E-04   -5.1634179E-12
 -9.0450002E-04   -3.8076200E-12
 -9.0400001E-04   -2.0957821E-12
 -9.0350001E-04   -2.2287888E-13
 -9.0300001E-04    1.8004929E-12
 -9.0250000E-04    3.7687618E-12
 -9.0200000E-04    5.5303986E-12
 -9.0150000E-04    7.0043403E-12
 -9.0099999E-04    8.0801190E-12
 -9.0049999E-04    8.5932251E-12
 -8.9999998E-04    8.4811394E-12
 -8.9949998E-04    7.7586982E-12
 -8.9899998E-04    6.3750372E-12
 -8.9849997E-04    4.5865920E-12
 -8.9800003E-04    2.3128303E-12
 -8.9750002E-04   -6.6895132E-14
 -8.9700002E-04   -2.5843733E-12
 -8.9650002E-04   -4.9958852E-12
 -8.9600001E-04   -7.0555927E-12
 -8.9550001E-04   -8.6289214E-12
 -8.9500000E-04   -9.5492425E-12
 -8.9450000E-04   -9.6476742E-12
 -8.9400000E-04   -8.7765299E-12
 -8.9349999E-04   -7.0852183E-12
 -8.9299999E-04   -4.5493691E-12
 -8.9249999E-04   -1.2993188E-12
 -8.9199998E-04    2.2929957E-12
 -8.9149998E-04    6.0643899E-12
 -8.9099997E-04    9.7944560E-12
 -8.9050003E-04    1.2923701E-11
 -8.9000002E-04    1.5566567E-11
 -8.8950002E-04    1.7399861E-11
 -8.8900002E-04    1.8417226E-11
 -8.8850001E-04    1.8430046E-11
 -8.8800001E-04    1.7313279E-11
 -8.8750001E-04    1.5183493E-11
 -8.8700000E-04    1.2162542E-11
 -8.8650000E-04    8.2705631E-12
 -8.8599999E-04    3.6400128E-12
 -8.8549999E-04   -1.3184963E-12
 -8.8499999E-04   -6.2595194E-12
 -8.8449998E-04   -1.0965828E-11
 -8.8399998E-04   -1.5319272E-11
 -8.8349998E-04   -1.9096265E-11
 -8.8299997E-04   -2.1894141E-11
 -8.8250003E-04   -2.3598463E-11
 -8.8200002E-04   -2.3942195E-11
 -8.8150002E-04   -2.3027068E-11
 -8.8100001E-04   -2.0683538E-11
 -8.8050001E-04   -1.6665769E-11
 -8.8000001E-04   -1.1194171E-11
 -8.7950000E-04   -4.9172420E-12
 -8.7900000E-04    2.0929578E-12
 -8.7850000E-04    9.4697913E-12
 -8.7799999E-04    1.6856421E-11
 -8.7749999E-04    2.3721702E-11
 -8.7699998E-04    3.0180074E-11
 -8.7649998E-04    3.5765290E-11
 -8.7599998E-04    3.9850043E-11
 -8.7549997E-04    4.1934185E-11
 -8.7500003E-04    4.1831216E-11
 -8.7450002E-04    3.9329210E-11
 -8.7400002E-04    3.4479034E-11
 -8.7350002E-04    2.7187435E-11
 -8.7300001E-04    1.8454722E-11
 -8.7250001E-04    8.4419641E-12
 -8.7200000E-04   -2.5456609E-12
 -8.7150000E-04   -1.3834216E-11
 -8.7100000E-04   -2.4474259E-11
 -8.7049999E-04   -3.4266576E-11
 -8.6999999E-04   -4.2855129E-11
 -8.6949999E-04   -4.9595651E-11
 -8.6899998E-04   -5.3657381E-11
 -8.6849998E-04   -5.4480837E-11
 -8.6799997E-04   -5.2218604E-11
 -8.6750003E-04   -4.7260636E-11
 -8.6700002E-04   -3.8996580E-11
 -8.6650002E-04   -2.8019845E-11
 -8.6600002E-04   -1.5784258E-11
 -8.6550001E-04   -2.6776524E-12
 -8.6500001E-04    1.0043233E-11
 -8.6450001E-04    2.3340552E-11
 -8.6400000E-04    3.4043851E-11
 -8.6350000E-04    4.1491911E-11
 -8.6299999E-04    4.4548802E-11
 -8.6249999E-04    4.3299284E-11
 -8.6199999E-04    3.7268647E-11
 -8.6149998E-04    2.7711507E-11
 -8.6099998E-04    1.4916093E-11
 -8.6049997E-04   -7.1068666E-13
 -8.5999997E-04   -1.7931167E-11
 -8.5950003E-04   -3.6444400E-11
 -8.5900002E-04   -5.2969726E-11
 -8.5850002E-04   -6.8571024E-11
 -8.5800001E-04   -8.0967941E-11
 -8.5750001E-04   -8.9092365E-11
 -8.5700001E-04   -8.9926414E-11
 -8.5650000E-04   -8.4351720E-11
 -8.5600000E-04   -7.2741285E-11
 -8.5549999E-04   -5.5569833E-11
 -8.5499999E-04   -3.3278175E-11
 -8.5449999E-04   -7.3413411E-12
 -8.5399998E-04    1.9324519E-11
 -8.5349998E-04    4.5731821E-11
 -8.5299998E-04    6.9328925E-11
 -8.5249997E-04    8.8229674E-11
 -8.5200003E-04    1.0223060E-10
 -8.5150002E-04    1.0931415E-10
 -8.5100002E-04    1.0646245E-10
 -8.5050002E-04    9.6252555E-11
 -8.5000001E-04    7.8582744E-11
 -8.4950001E-04    5.4877186E-11
 -8.4900000E-04    2.6627861E-11
 -8.4850000E-04   -4.1646049E-12
 -8.4800000E-04   -3.5889552E-11
 -8.4749999E-04   -6.5249355E-11
 -8.4699999E-04   -9.1760814E-11
 -8.4649998E-04   -1.1394890E-10
 -8.4599998E-04   -1.3025379E-10
 -8.4549998E-04   -1.3987866E-10
 -8.4499997E-04   -1.4048379E-10
 -8.4450003E-04   -1.3223876E-10
 -8.4400002E-04   -1.1327856E-10
 -8.4350002E-04   -8.5976837E-11
 -8.4300002E-04   -5.0910023E-11
 -8.4250001E-04   -9.1632214E-12
 -8.4200001E-04    3.7245991E-11
 -8.4150000E-04    8.5969426E-11
 -8.4100000E-04    1.3422234E-10
 -8.4050000E-04    1.8046611E-10
 -8.3999999E-04    2.2069106E-10
 -8.3949999E-04    2.5433769E-10
 -8.3899999E-04    2.7815075E-10
 -8.3849998E-04    2.8823080E-10
 -8.3799998E-04    2.8410310E-10
 -8.3749997E-04    2.6671712E-10
 -8.3700003E-04    2.3559812E-10
 -8.3650002E-04    1.9461174E-10
 -8.3600002E-04    1.4721666E-10
 -8.3550002E-04    9.4701400E-11
 -8.3500001E-04    4.1707249E-11
 -8.3450001E-04   -9.5553947E-12
 -8.3400001E-04   -5.6240304E-11
 -8.3350000E-04   -9.3871529E-11
 -8.3300000E-04   -1.2021110E-10
 -8.3249999E-04   -1.4192209E-10
 -8.3199999E-04   -1.5095118E-10
 -8.3149999E-04   -1.4585727E-10
 -8.3099998E-04   -1.2626741E-10
 -8.3049998E-04   -9.6293050E-11
 -8.2999998E-04   -5.7635445E-11
 -8.2949997E-04   -1.3232492E-11
 -8.2900003E-04    3.3700830E-11
 -8.2850002E-04    8.1981928E-11
 -8.2800002E-04    1.2414665E-10
 -8.2750001E-04    1.6042390E-10
 -8.2700001E-04    1.8300197E-10
 -8.2650001E-04    1.9242342E-10
 -8.2600000E-04    1.8570430E-10
 -8.2550000E-04    1.6238683E-10
 -8.2500000E-04    1.1818166E-10
 -8.2449999E-04    6.2074540E-11
 -8.2399999E-04   -6.2057356E-12
 -8.2349998E-04   -8.6760869E-11
 -8.2299998E-04   -1.7331774E-10
 -8.2249998E-04   -2.6026442E-10
 -8.2199997E-04   -3.4393882E-10
 -8.2150003E-04   -4.1540596E-10
 -8.2100002E-04   -4.7010518E-10
 -8.2050002E-04   -4.9971188E-10
 -8.2000002E-04   -4.9564725E-10
 -8.1950001E-04   -4.5245205E-10
 -8.1900001E-04   -3.7378842E-10
 -8.1850000E-04   -2.5918165E-10
 -8.1800000E-04   -1.1487103E-10
 -8.1750000E-04    5.2632985E-11
 -8.1699999E-04    2.3329341E-10
 -8.1649999E-04    4.1568304E-10
 -8.1599999E-04    5.8684868E-10
 -8.1549998E-04    7.3240469E-10
 -8.1499998E-04    8.4016943E-10
 -8.1449997E-04    9.0171659E-10
 -8.1400003E-04    9.1212937E-10
 -8.1350002E-04    8.6699981E-10
 -8.1300002E-04    7.6246232E-10
 -8.1250002E-04    6.0339983E-10
 -8.1200001E-04    4.1992318E-10
 -8.1150001E-04    2.0416560E-10
 -8.1100001E-04   -1.9865540E-11
 -8.1050000E-04   -2.4532065E-10
 -8.1000000E-04   -4.5416040E-10
 -8.0949999E-04   -6.2876915E-10
 -8.0899999E-04   -7.5749929E-10
 -8.0849999E-04   -8.2478685E-10
 -8.0799998E-04   -8.3266632E-10
 -8.0749998E-04   -7.8520690E-10
 -8.0699997E-04   -6.8471429E-10
 -8.0649997E-04   -5.2603460E-10
 -8.0600003E-04   -3.3588771E-10
 -8.0550002E-04   -1.3326253E-10
 -8.0500002E-04    7.0176337E-11
 -8.0450001E-04    2.7130923E-10
 -8.0400001E-04    4.5514850E-10
 -8.0350001E-04    6.0809680E-10
 -8.0300000E-04    7.2336392E-10
 -8.0250000E-04    7.9143003E-10
 -8.0200000E-04    8.1338025E-10
 -8.0149999E-04    7.8704432E-10
 -8.0099999E-04    7.2381579E-10
 -8.0049998E-04    6.1854039E-10
 -7.9999998E-04    4.8695192E-10
 -7.9949998E-04    3.4559783E-10
 -7.9899997E-04    1.9610577E-10
 -7.9850003E-04    5.5565760E-11
 -7.9800002E-04   -7.6293395E-11
 -7.9750002E-04   -2.1086494E-10
 -7.9700002E-04   -3.2392117E-10
 -7.9650001E-04   -4.1534340E-10
 -7.9600001E-04   -4.8764082E-10
 -7.9550000E-04   -5.3945720E-10
 -7.9500000E-04   -5.6794425E-10
 -7.9450000E-04   -5.7472960E-10
 -7.9399999E-04   -5.5113275E-10
 -7.9349999E-04   -5.1234494E-10
 -7.9299998E-04   -4.5402579E-10
 -7.9249998E-04   -3.6695227E-10
 -7.9199998E-04   -2.4597036E-10
 -7.9149997E-04   -9.2843316E-11
 -7.9100003E-04    8.2052691E-11
 -7.9050002E-04    2.7715788E-10
 -7.9000002E-04    4.6805809E-10
 -7.8950002E-04    6.4213923E-10
 -7.8900001E-04    7.8882190E-10
 -7.8850001E-04    8.8965990E-10
 -7.8800000E-04    9.2729219E-10
 -7.8750000E-04    8.9656460E-10
 -7.8700000E-04    7.8662654E-10
 -7.8649999E-04    6.4277988E-10
 -7.8599999E-04    4.1782419E-10
 -7.8549999E-04    1.3508857E-10
 -7.8499998E-04   -1.8318284E-10
 -7.8449998E-04   -5.2315535E-10
 -7.8399997E-04   -8.6600954E-10
 -7.8350003E-04   -1.1592211E-09
 -7.8300002E-04   -1.3935669E-09
 -7.8250002E-04   -1.5476169E-09
 -7.8200002E-04   -1.6061800E-09
 -7.8150001E-04   -1.5622033E-09
 -7.8100001E-04   -1.4042937E-09
 -7.8050001E-04   -1.1362490E-09
 -7.8000000E-04   -7.4125089E-10
 -7.7950000E-04   -2.6785646E-10
 -7.7899999E-04    2.3402066E-10
 -7.7849999E-04    7.2938672E-10
 -7.7799999E-04    1.2056277E-09
 -7.7749998E-04    1.5883141E-09
 -7.7699998E-04    1.8538120E-09
 -7.7649998E-04    1.9603457E-09
 -7.7599997E-04    1.8772621E-09
 -7.7550003E-04    1.6023913E-09
 -7.7500002E-04    1.1517384E-09
 -7.7450002E-04    5.6599386E-10
 -7.7400001E-04   -1.1794959E-10
 -7.7350001E-04   -8.4258295E-10
 -7.7300001E-04   -1.5352061E-09
 -7.7250000E-04   -2.1206774E-09
 -7.7200000E-04   -2.5333498E-09
 -7.7150000E-04   -2.7420273E-09
 -7.7099999E-04   -2.7397928E-09
 -7.7049999E-04   -2.5228823E-09
 -7.6999998E-04   -2.1022486E-09
 -7.6949998E-04   -1.5187176E-09
 -7.6899998E-04   -8.3671592E-10
 -7.6849997E-04   -1.2623105E-10
 -7.6800003E-04    5.7448779E-10
 -7.6750002E-04    1.1965381E-09
 -7.6700002E-04    1.6878361E-09
 -7.6650002E-04    2.0076918E-09
 -7.6600001E-04    2.1495941E-09
 -7.6550001E-04    2.1113729E-09
 -7.6500000E-04    1.9185278E-09
 -7.6450000E-04    1.5588518E-09
 -7.6400000E-04    1.0809020E-09
 -7.6349999E-04    5.1668830E-10
 -7.6299999E-04   -7.6551210E-11
 -7.6249999E-04   -6.6734918E-10
 -7.6199998E-04   -1.2109461E-09
 -7.6149998E-04   -1.6460351E-09
 -7.6099997E-04   -1.9373509E-09
 -7.6050003E-04   -2.0946589E-09
 -7.6000002E-04   -2.0490569E-09
 -7.5950002E-04   -1.8358102E-09
 -7.5900002E-04   -1.5249055E-09
 -7.5850001E-04   -1.0940993E-09
 -7.5800001E-04   -5.8787958E-10
 -7.5750001E-04    5.1466665E-12
 -7.5700000E-04    6.5622485E-10
 -7.5650000E-04    1.2959099E-09
 -7.5599999E-04    1.8987023E-09
 -7.5549999E-04    2.4261491E-09
 -7.5499999E-04    2.8528191E-09
 -7.5449998E-04    3.1859004E-09
 -7.5399998E-04    3.3545917E-09
 -7.5349997E-04    3.4028389E-09
 -7.5299997E-04    3.3642786E-09
 -7.5250003E-04    3.2421668E-09
 -7.5200002E-04    2.9963552E-09
 -7.5150002E-04    2.6366098E-09
 -7.5100001E-04    2.1640161E-09
 -7.5050001E-04    1.6111265E-09
 -7.5000001E-04    9.5189945E-10
 -7.4950000E-04    2.1943013E-10
 -7.4900000E-04   -6.2236022E-10
 -7.4850000E-04   -1.5200988E-09
 -7.4799999E-04   -2.4642235E-09
 -7.4749999E-04   -3.3882728E-09
 -7.4699998E-04   -4.2081534E-09
 -7.4649998E-04   -4.8956537E-09
 -7.4599998E-04   -5.3932636E-09