 -1.2000001E-03    1.0000000E-24
 -1.1995001E-03    1.0000000E-24
 -1.1990000E-03    1.0000000E-24
 -1.1985000E-03    1.0000000E-24
 -1.1980000E-03    1.0000000E-24
 -1.1975000E-03    1.0000000E-24
 -1.1970000E-03    1.0000000E-24
 -1.1965000E-03    1.0000000E-24
 -1.1960000E-03    1.0000001E-24
 -1.1955000E-03    1.0000001E-24
 -1.1950000E-03    1.0000001E-24
 -1.1945000E-03    1.0000001E-24
 -1.1940000E-03    1.0000001E-24
 -1.1935000E-03    1.0000001E-24
 -1.1930000E-03    1.0000001E-24
 -1.1925000E-03    1.0000001E-24
 -1.1920000E-03    1.0000001E-24
 -1.1915000E-03    1.0000001E-24
 -1.1910000E-03    1.0000001E-24
 -1.1905000E-03    1.0000001E-24
 -1.1900000E-03    1.0000001E-24
 -1.1895000E-03    1.0000001E-24
 -1.1890000E-03    1.0000001E-24
 -1.1885000E-03    1.0000001E-24
 -1.1880000E-03    1.0000002E-24
 -1.1875000E-03    1.0000003E-24
 -1.1870000E-03    1.0000004E-24
 -1.1865000E-03    1.0000005E-24
 -1.1860000E-03    1.0000005E-24
 -1.1854999E-03    1.0000005E-24
 -1.1849999E-03    1.0000005E-24
 -1.1845001E-03    1.0000005E-24
 -1.1840001E-03    1.0000005E-24
 -1.1835000E-03    1.0000005E-24
 -1.1830000E-03    1.0000005E-24
 -1.1825000E-03    1.0000004E-24
 -1.1820000E-03    1.0000003E-24
 -1.1815000E-03    1.0000002E-24
 -1.1810000E-03    1.0000001E-24
 -1.1805000E-03    1.0000001E-24
 -1.1800000E-03    1.0000001E-24
 -1.1795000E-03    1.0000001E-24
 -1.1790000E-03    1.0000002E-24
 -1.1785000E-03    1.0000004E-24
 -1.1780000E-03    1.0000006E-24
 -1.1775000E-03    1.0000013E-24
 -1.1770000E-03    1.0000009E-24
 -1.1765000E-03    1.0000024E-24
 -1.1760000E-03    1.0000072E-24
 -1.1755000E-03    1.0000124E-24
 -1.1750000E-03    1.0000178E-24
 -1.1745000E-03    1.0000195E-24
 -1.1740000E-03    1.0000261E-24
 -1.1735000E-03    1.0000331E-24
 -1.1730000E-03    1.0000338E-24
 -1.1725000E-03    1.0000366E-24
 -1.1720000E-03    1.0000431E-24
 -1.1715000E-03    1.0000270E-24
 -1.1710000E-03    1.0001050E-24
 -1.1704999E-03    1.0002922E-24
 -1.1699999E-03    1.0007881E-24
 -1.1695001E-03    1.0007795E-24
 -1.1690001E-03    1.0005978E-24
 -1.1685000E-03    1.0004048E-24
 -1.1680000E-03    1.0000988E-24
 -1.1675000E-03    9.9960460E-25
 -1.1670000E-03    9.9859831E-25
 -1.1665000E-03    9.9741137E-25
 -1.1660000E-03    9.9568229E-25
 -1.1655000E-03    9.9600128E-25
 -1.1650000E-03    1.0037896E-24
 -1.1645000E-03    1.0084459E-24
 -1.1640000E-03    1.0082835E-24
 -1.1635000E-03    1.0230590E-24
 -1.1630000E-03    1.0609647E-24
 -1.1625000E-03    1.1229636E-24
 -1.1620000E-03    1.2023108E-24
 -1.1615000E-03    1.3209321E-24
 -1.1610000E-03    1.4637666E-24
 -1.1605000E-03    1.5526306E-24
 -1.1600000E-03    1.6337788E-24
 -1.1595000E-03    1.6069871E-24
 -1.1590000E-03    1.5069473E-24
 -1.1585000E-03    1.4146198E-24
 -1.1580000E-03    1.2374794E-24
 -1.1575000E-03    1.1836998E-24
 -1.1570000E-03    6.6732702E-25
 -1.1565000E-03    4.2851235E-25
 -1.1560000E-03    3.9017573E-25
 -1.1555000E-03   -6.9669957E-25
 -1.1549999E-03   -2.3772509E-24
 -1.1544999E-03   -4.4500405E-24
 -1.1540001E-03   -6.0911063E-24
 -1.1535001E-03   -7.7630327E-24
 -1.1530000E-03   -9.4350131E-24
 -1.1525000E-03   -9.8734004E-24
 -1.1520000E-03   -8.7081456E-24
 -1.1515000E-03   -7.0493660E-24
 -1.1510000E-03   -3.9102380E-24
 -1.1505000E-03    3.4231854E-24
 -1.1500000E-03    1.1003408E-23
 -1.1495000E-03    1.1182409E-23
 -1.1490000E-03    1.2348368E-23
 -1.1485000E-03    2.4863484E-23
 -1.1480000E-03    2.1804144E-23
 -1.1475000E-03    2.5652698E-23
 -1.1470000E-03    3.3942100E-23
 -1.1465000E-03    4.1244270E-23
 -1.1460000E-03    5.2493127E-23
 -1.1455000E-03    6.3741835E-23
 -1.1450000E-03    1.0064922E-22
 -1.1445000E-03    1.2768722E-22
 -1.1440000E-03    1.0538200E-22
 -1.1435000E-03   -6.4953324E-23
 -1.1430000E-03   -2.3529270E-22
 -1.1425000E-03   -5.4971488E-22
 -1.1420000E-03   -1.0921074E-21
 -1.1415000E-03   -1.6986461E-21
 -1.1410000E-03   -2.2242584E-21
 -1.1405000E-03   -2.6117057E-21
 -1.1399999E-03   -2.8333573E-21
 -1.1394999E-03   -2.4628923E-21
 -1.1390001E-03   -1.9818878E-21
 -1.1385001E-03   -7.1137856E-22
 -1.1380001E-03    1.4860799E-22
 -1.1375000E-03    1.1665013E-21
 -1.1370000E-03    1.6001726E-21
 -1.1365000E-03    3.9169900E-22
 -1.1360000E-03   -1.6299686E-21
 -1.1355000E-03   -3.8608534E-21
 -1.1350000E-03   -5.8075390E-21
 -1.1345000E-03   -7.2173996E-21
 -1.1340000E-03   -8.3430745E-21
 -1.1335000E-03   -1.0226668E-20
 -1.1330000E-03   -1.1478688E-20
 -1.1325000E-03   -1.1846466E-20
 -1.1320000E-03   -1.1835336E-20
 -1.1315000E-03   -1.2329502E-20
 -1.1310000E-03   -1.7118490E-20
 -1.1305000E-03   -2.4433849E-20
 -1.1300000E-03   -3.4275612E-20
 -1.1295000E-03   -3.8369836E-20
 -1.1290000E-03   -4.1516667E-20
 -1.1285000E-03   -4.5547618E-20
 -1.1280000E-03   -3.3914980E-20
 -1.1275000E-03   -1.8997941E-20
 -1.1270000E-03   -6.6072707E-21
 -1.1265000E-03    6.2888232E-21
 -1.1260000E-03    1.4132321E-20
 -1.1255000E-03    3.6628892E-20
 -1.1250000E-03    4.6999094E-20
 -1.1244999E-03    6.0400993E-20
 -1.1239999E-03    9.5277254E-20
 -1.1235001E-03    1.3766967E-19
 -1.1230001E-03    1.6515624E-19
 -1.1225000E-03    2.0274860E-19
 -1.1220000E-03    2.3124540E-19
 -1.1215000E-03    2.4660480E-19
 -1.1210000E-03    2.3063641E-19
 -1.1205000E-03    1.4999181E-19
 -1.1200000E-03    1.8818911E-20
 -1.1195000E-03   -1.1841866E-19
 -1.1190000E-03   -2.7586807E-19
 -1.1185000E-03   -5.2729962E-19
 -1.1180000E-03   -7.5397306E-19
 -1.1175000E-03   -9.3833011E-19
 -1.1170000E-03   -1.0367889E-18
 -1.1165000E-03   -9.9983327E-19
 -1.1160000E-03   -8.9820079E-19
 -1.1155000E-03   -5.5807467E-19
 -1.1150000E-03   -4.4129788E-20
 -1.1145000E-03    6.5980206E-19
 -1.1140000E-03    1.5335089E-18
 -1.1135000E-03    2.4314709E-18
 -1.1130000E-03    3.2202931E-18
 -1.1125000E-03    4.0758125E-18
 -1.1120000E-03    4.8848448E-18
 -1.1115000E-03    5.3644346E-18
 -1.1110000E-03    5.5206444E-18
 -1.1105000E-03    5.5070802E-18
 -1.1100000E-03    5.1863070E-18
 -1.1094999E-03    4.6229999E-18
 -1.1089999E-03    3.8009888E-18
 -1.1084999E-03    2.8011177E-18
 -1.1080001E-03    1.8335852E-18
 -1.1075001E-03    6.8819292E-19
 -1.1070000E-03   -8.6142315E-19
 -1.1065000E-03   -2.3665776E-18
 -1.1060000E-03   -3.5443180E-18
 -1.1055000E-03   -4.4795209E-18
 -1.1050000E-03   -5.6572528E-18
 -1.1045000E-03   -6.7379614E-18
 -1.1040000E-03   -8.4330931E-18
 -1.1035000E-03   -1.0354589E-17
 -1.1030000E-03   -1.1499976E-17
 -1.1025000E-03   -1.2516010E-17
 -1.1020000E-03   -1.3273336E-17
 -1.1015000E-03   -1.3577940E-17
 -1.1010000E-03   -1.3769362E-17
 -1.1005000E-03   -1.4356942E-17
 -1.1000000E-03   -1.4233115E-17
 -1.0995000E-03   -1.2298377E-17
 -1.0990000E-03   -9.5875370E-18
 -1.0985000E-03   -7.0060668E-18
 -1.0980000E-03   -3.6485001E-18
 -1.0975000E-03   -3.3953729E-18
 -1.0970000E-03   -3.6596683E-18
 -1.0965000E-03   -3.7946088E-18
 -1.0960000E-03   -4.6409928E-18
 -1.0955000E-03   -3.8704864E-18
 -1.0950000E-03   -1.5840949E-18
 -1.0945000E-03    3.6774270E-18
 -1.0939999E-03    9.7151577E-18
 -1.0934999E-03    1.4718167E-17
 -1.0930001E-03    2.3084412E-17
 -1.0925001E-03    3.0674709E-17
 -1.0920000E-03    4.7060926E-17
 -1.0915000E-03    6.2929803E-17
 -1.0910000E-03    7.6470366E-17
 -1.0905000E-03    9.4150068E-17
 -1.0900000E-03    1.0070549E-16
 -1.0895000E-03    1.0357433E-16
 -1.0890000E-03    1.0696043E-16
 -1.0885000E-03    1.0336139E-16
 -1.0880000E-03    8.8896756E-17
 -1.0875000E-03    7.4949432E-17
 -1.0870000E-03    5.2206068E-17
 -1.0865000E-03    1.2388167E-17
 -1.0860000E-03   -2.4325459E-17
 -1.0855000E-03   -9.0013748E-17
 -1.0850000E-03   -1.6605021E-16
 -1.0845000E-03   -2.4208681E-16
 -1.0840000E-03   -3.2510864E-16
 -1.0835000E-03   -3.9894656E-16
 -1.0830000E-03   -4.6347149E-16
 -1.0825000E-03   -5.0109146E-16
 -1.0820000E-03   -5.1491069E-16
 -1.0815000E-03   -5.0906860E-16
 -1.0810000E-03   -4.8046022E-16
 -1.0805000E-03   -3.9390200E-16
 -1.0800000E-03   -2.5146402E-16
 -1.0795000E-03   -9.1433759E-17
 -1.0790000E-03    1.3896452E-16
 -1.0784999E-03    4.1386040E-16
 -1.0779999E-03    7.3886451E-16
 -1.0775001E-03    1.0618003E-15
 -1.0770001E-03    1.4261290E-15
 -1.0765000E-03    1.8028762E-15
 -1.0760000E-03    2.1071869E-15
 -1.0755000E-03    2.4032192E-15
 -1.0750000E-03    2.4840107E-15
 -1.0745000E-03    2.4654588E-15
 -1.0740000E-03    2.1861336E-15
 -1.0735000E-03    1.7143321E-15
 -1.0730000E-03    1.1721616E-15
 -1.0725000E-03    4.8408071E-16
 -1.0720000E-03   -2.9092604E-16
 -1.0715000E-03   -1.1714853E-15
 -1.0710000E-03   -2.0210016E-15
 -1.0705000E-03   -2.8291269E-15
 -1.0700000E-03   -3.5875818E-15
 -1.0695000E-03   -4.2591129E-15
 -1.0690000E-03   -4.8147436E-15
 -1.0685000E-03   -5.1468538E-15
 -1.0680000E-03   -5.0733165E-15
 -1.0675000E-03   -4.6934735E-15
 -1.0670000E-03   -4.0569930E-15
 -1.0665000E-03   -3.0924754E-15
 -1.0660000E-03   -1.9246147E-15
 -1.0655000E-03   -8.0228303E-16
 -1.0650000E-03    3.2832929E-16
 -1.0645000E-03    1.5955382E-15
 -1.0640000E-03    2.7095970E-15
 -1.0634999E-03    3.7739858E-15
 -1.0629999E-03    4.4161706E-15
 -1.0625001E-03    4.8431120E-15
 -1.0620001E-03    5.0920648E-15
 -1.0615001E-03    5.1174974E-15
 -1.0610000E-03    4.8200651E-15
 -1.0605000E-03    4.5391865E-15
 -1.0600000E-03    4.2044928E-15
 -1.0595000E-03    3.6493822E-15
 -1.0590000E-03    3.0621912E-15
 -1.0585000E-03    2.4781033E-15
 -1.0580000E-03    2.3301870E-15
 -1.0575000E-03    2.4378705E-15
 -1.0570000E-03    2.6490390E-15
 -1.0565000E-03    2.6330707E-15
 -1.0560000E-03    3.0556051E-15
 -1.0555000E-03    4.1300763E-15
 -1.0550000E-03    4.9520549E-15
 -1.0545000E-03    5.5256758E-15
 -1.0540000E-03    5.8426723E-15
 -1.0535000E-03    5.8119708E-15
 -1.0530000E-03    5.1355425E-15
 -1.0525000E-03    3.6974919E-15
 -1.0520000E-03    2.3587784E-15
 -1.0515000E-03    1.7816823E-15
 -1.0510000E-03    1.3701604E-15
 -1.0505000E-03    1.4553411E-15
 -1.0500000E-03    8.9479269E-16
 -1.0495000E-03   -3.4459140E-16
 -1.0490000E-03   -1.2282992E-16
 -1.0485000E-03    6.5812336E-17
 -1.0479999E-03    1.2198189E-16
 -1.0474999E-03   -9.4772261E-16
 -1.0470001E-03   -3.1433045E-15
 -1.0465001E-03   -6.0011802E-15
 -1.0460000E-03   -1.1508198E-14
 -1.0455000E-03   -1.7015213E-14
 -1.0450000E-03   -2.3052076E-14
 -1.0445000E-03   -2.9817450E-14
 -1.0440000E-03   -3.8039802E-14
 -1.0435000E-03   -4.4639534E-14
 -1.0430000E-03   -5.0088514E-14
 -1.0425000E-03   -5.0967755E-14
 -1.0420000E-03   -4.4164488E-14
 -1.0415000E-03   -3.1798013E-14
 -1.0410000E-03   -1.6252555E-14
 -1.0405000E-03    6.9753561E-15
 -1.0400000E-03    3.5236594E-14
 -1.0395000E-03    6.0583801E-14
 -1.0390000E-03    8.4871339E-14
 -1.0385000E-03    9.9357114E-14
 -1.0380000E-03    1.1331296E-13
 -1.0375000E-03    1.2004990E-13
 -1.0370000E-03    1.1337561E-13
 -1.0365000E-03    8.9084698E-14
 -1.0360000E-03    4.9693732E-14
 -1.0355000E-03   -2.9381667E-16
 -1.0350000E-03   -6.1937556E-14
 -1.0345000E-03   -1.2676032E-13
 -1.0340000E-03   -1.9529189E-13
 -1.0335000E-03   -2.6488314E-13
 -1.0329999E-03   -3.2758675E-13
 -1.0324999E-03   -3.7068688E-13
 -1.0319999E-03   -3.7881861E-13
 -1.0315001E-03   -3.6853880E-13
 -1.0310001E-03   -3.2885351E-13
 -1.0305000E-03   -2.6850500E-13
 -1.0300000E-03   -1.7795630E-13
 -1.0295000E-03   -7.6810845E-14
 -1.0290000E-03    2.8573538E-14
 -1.0285000E-03    1.5621068E-13
 -1.0280000E-03    2.8808661E-13
 -1.0275000E-03    3.8605401E-13
 -1.0270000E-03    4.6388821E-13
 -1.0265000E-03    5.1523114E-13
 -1.0260000E-03    5.1094253E-13
 -1.0255000E-03    4.3512779E-13
 -1.0250000E-03    2.9679360E-13
 -1.0245000E-03    1.1077467E-13
 -1.0240000E-03   -1.3670422E-13
 -1.0235000E-03   -4.3716617E-13
 -1.0230000E-03   -7.3762903E-13
 -1.0225000E-03   -1.0571661E-12
 -1.0220000E-03   -1.3237215E-12
 -1.0215000E-03   -1.5351757E-12
 -1.0210000E-03   -1.7106021E-12
 -1.0205000E-03   -1.7811234E-12
 -1.0200000E-03   -1.7552165E-12
 -1.0195000E-03   -1.6331463E-12
 -1.0190000E-03   -1.4316016E-12
 -1.0185000E-03   -1.1028982E-12
 -1.0180000E-03   -6.5763231E-13
 -1.0174999E-03   -7.6730912E-14
 -1.0169999E-03    5.4231907E-13
 -1.0165001E-03    1.2249490E-12
 -1.0160001E-03    1.9542046E-12
 -1.0155000E-03    2.6580294E-12
 -1.0150000E-03    3.2325781E-12
 -1.0145000E-03    3.6630148E-12
 -1.0140000E-03    3.9747697E-12
 -1.0135000E-03    4.0263808E-12
 -1.0130000E-03    3.8522857E-12
 -1.0125000E-03    3.4387079E-12
 -1.0120000E-03    2.8555840E-12
 -1.0115000E-03    1.9799965E-12
 -1.0110000E-03    9.8148692E-13
 -1.0105000E-03   -5.5172867E-14
 -1.0100000E-03   -1.1511742E-12
 -1.0095000E-03   -2.2810850E-12
 -1.0090000E-03   -3.2372141E-12
 -1.0085000E-03   -4.0089646E-12
 -1.0080000E-03   -4.3780487E-12
 -1.0075000E-03   -4.3316839E-12
 -1.0070000E-03   -3.9027848E-12
 -1.0065000E-03   -3.0775749E-12
 -1.0060000E-03   -1.9556596E-12
 -1.0055000E-03   -4.0140534E-13
 -1.0050000E-03    1.3817380E-12
 -1.0045000E-03    3.3005191E-12
 -1.0040000E-03    5.2871206E-12
 -1.0035000E-03    7.0194102E-12
 -1.0030000E-03    8.5101023E-12
 -1.0025000E-03    9.6277986E-12
 -1.0019999E-03    1.0245340E-11
 -1.0014999E-03    1.0282722E-11
 -1.0010001E-03    9.6885503E-12
 -1.0005001E-03    8.4924958E-12
 -1.0000000E-03    6.5631597E-12
 -9.9950004E-04    3.8030568E-12
 -9.9900004E-04    4.7497732E-13
 -9.9850004E-04   -3.0735137E-12
 -9.9800003E-04   -6.5626697E-12
 -9.9750003E-04   -9.8780472E-12
 -9.9700002E-04   -1.2646650E-11
 -9.9650002E-04   -1.4597207E-11
 -9.9600002E-04   -1.5487058E-11
 -9.9550001E-04   -1.5388257E-11
 -9.9500001E-04   -1.4350602E-11
 -9.9450001E-04   -1.2444032E-11
 -9.9400000E-04   -9.9482887E-12
 -9.9350000E-04   -6.8972801E-12
 -9.9299999E-04   -3.5537974E-12
 -9.9249999E-04   -4.8581207E-13
 -9.9199999E-04    2.4168770E-12
 -9.9149998E-04    5.0440659E-12
 -9.9099998E-04    7.2219700E-12
 -9.9049998E-04    8.4631486E-12
 -9.8999997E-04    8.8042872E-12
 -9.8949997E-04    8.4683068E-12
 -9.8899996E-04    7.4710984E-12
 -9.8849996E-04    5.8677607E-12
 -9.8799996E-04    4.0037370E-12
 -9.8749995E-04    1.9510830E-12
 -9.8699995E-04    5.3121302E-14
 -9.8649994E-04   -1.9206190E-12
 -9.8600006E-04   -3.9017882E-12
 -9.8550005E-04   -5.8543587E-12
 -9.8500005E-04   -7.1351237E-12
 -9.8450005E-04   -8.0132264E-12
 -9.8400004E-04   -8.5310526E-12
 -9.8350004E-04   -8.8666166E-12
 -9.8300003E-04   -8.9648133E-12
 -9.8250003E-04   -8.8161067E-12
 -9.8200003E-04   -8.6928147E-12
 -9.8150002E-04   -8.3702906E-12
 -9.8100002E-04   -7.2932780E-12
 -9.8050002E-04   -5.0463982E-12
 -9.8000001E-04   -2.5621376E-12
 -9.7950001E-04    2.8666091E-13
 -9.7900000E-04    3.9831892E-12
 -9.7850000E-04    8.1035855E-12
 -9.7800000E-04    1.2020536E-11
 -9.7749999E-04    1.5478663E-11
 -9.7699999E-04    1.8678234E-11
 -9.7649998E-04    2.0767287E-11
 -9.7599998E-04    2.1516936E-11
 -9.7549998E-04    2.1096713E-11
 -9.7499997E-04    1.9014949E-11
 -9.7450003E-04    1.5610721E-11
 -9.7400002E-04    1.0850121E-11
 -9.7350002E-04    5.1230977E-12
 -9.7300002E-04   -1.1973532E-12
 -9.7250001E-04   -7.8060475E-12
 -9.7200001E-04   -1.5186179E-11
 -9.7150001E-04   -2.1748266E-11
 -9.7100000E-04   -2.6648829E-11
 -9.7050000E-04   -3.1328978E-11
 -9.6999999E-04   -3.4856212E-11
 -9.6949999E-04   -3.6925341E-11
 -9.6899999E-04   -3.7604184E-11
 -9.6849998E-04   -3.6316287E-11
 -9.6799998E-04   -3.2146119E-11
 -9.6749997E-04   -2.7128190E-11
 -9.6700003E-04   -2.0075712E-11
 -9.6650003E-04   -1.0751321E-11
 -9.6600002E-04    9.9754471E-13
 -9.6550002E-04    1.1466360E-11
 -9.6500001E-04    2.2443795E-11
 -9.6450001E-04    3.1929227E-11
 -9.6400001E-04    3.8227199E-11
 -9.6350000E-04    3.8896268E-11
 -9.6300000E-04    3.5970962E-11
 -9.6249999E-04    2.9722544E-11
 -9.6199999E-04    2.0557927E-11
 -9.6149999E-04    6.7816898E-12
 -9.6099998E-04   -9.5716412E-12
 -9.6049998E-04   -2.5450274E-11
 -9.5999998E-04   -3.8463621E-11
 -9.5949997E-04   -4.7463013E-11
 -9.5900003E-04   -5.2020326E-11
 -9.5850002E-04   -5.1491273E-11
 -9.5800002E-04   -4.5672400E-11
 -9.5750001E-04   -3.2664812E-11
 -9.5700001E-04   -1.6808792E-11
 -9.5650001E-04    2.8450894E-12
 -9.5600000E-04    2.4533564E-11
 -9.5550000E-04    4.6764634E-11
 -9.5500000E-04    6.8453195E-11
 -9.5449999E-04    8.7632526E-11
 -9.5399999E-04    1.0233593E-10
 -9.5349998E-04    1.0747495E-10
 -9.5299998E-04    1.0261084E-10
 -9.5249998E-04    8.7370583E-11
 -9.5199997E-04    6.2228889E-11
 -9.5150003E-04    3.5595093E-11
 -9.5100002E-04   -9.4012873E-13
 -9.5050002E-04   -3.8153654E-11
 -9.5000002E-04   -7.6859283E-11
 -9.4950001E-04   -1.1081783E-10
 -9.4900001E-04   -1.4002922E-10
 -9.4850000E-04   -1.6232331E-10
 -9.4800000E-04   -1.7441087E-10
 -9.4750000E-04   -1.7154471E-10
 -9.4699999E-04   -1.5335178E-10
 -9.4649999E-04   -1.2227350E-10
 -9.4599999E-04   -7.6953451E-11
 -9.4549998E-04   -2.7699856E-11
 -9.4499998E-04    2.5758597E-11
 -9.4449997E-04    8.4778282E-11
 -9.4400003E-04    1.4542580E-10
 -9.4350002E-04    2.0336077E-10
 -9.4300002E-04    2.5478541E-10
 -9.4250002E-04    2.9630881E-10
 -9.4200001E-04    3.3071143E-10
 -9.4150001E-04    3.5043157E-10
 -9.4100001E-04    3.5638476E-10
 -9.4050000E-04    3.4701114E-10
 -9.4000000E-04    3.1051045E-10
 -9.3949999E-04    2.6003921E-10
 -9.3899999E-04    2.0251474E-10
 -9.3849999E-04    1.2735757E-10
 -9.3799998E-04    4.1891934E-11
 -9.3749998E-04   -5.0084326E-11
 -9.3699998E-04   -1.3866991E-10
 -9.3649997E-04   -2.2393258E-10
 -9.3600003E-04   -3.0065037E-10
 -9.3550002E-04   -3.6306719E-10
 -9.3500002E-04   -4.1022508E-10
 -9.3450001E-04   -4.4029294E-10
 -9.3400001E-04   -4.4608203E-10
 -9.3350001E-04   -4.2908435E-10
 -9.3300000E-04   -3.8563772E-10
 -9.3250000E-04   -3.2143874E-10
 -9.3200000E-04   -2.3553792E-10
 -9.3149999E-04   -1.2996985E-10
 -9.3099999E-04   -8.3289035E-12
 -9.3049998E-04    1.1717771E-10
 -9.2999998E-04    2.3923427E-10
 -9.2949998E-04    3.5254244E-10
 -9.2899997E-04    4.4848930E-10
 -9.2850003E-04    5.2259885E-10
 -9.2800002E-04    5.7894006E-10
 -9.2750002E-04    6.1412203E-10
 -9.2700002E-04    6.2041366E-10
 -9.2650001E-04    6.1110694E-10
 -9.2600001E-04    5.9189870E-10
 -9.2550000E-04    5.6112737E-10
 -9.2500000E-04    5.1620758E-10
 -9.2450000E-04    4.6264093E-10
 -9.2399999E-04    4.0514087E-10
 -9.2349999E-04    3.4967534E-10
 -9.2299999E-04    2.8905581E-10
 -9.2249998E-04    2.2830078E-10
 -9.2199998E-04    1.7134374E-10
 -9.2149997E-04    1.2401698E-10
 -9.2100003E-04    9.7781644E-11
 -9.2050002E-04    8.0769738E-11
 -9.2000002E-04    7.7770887E-11
 -9.1950002E-04    1.1471663E-10
 -9.1900001E-04    1.6739617E-10
 -9.1850001E-04    2.4191302E-10
 -9.1800001E-04    3.1887140E-10
 -9.1750000E-04    3.9189643E-10
 -9.1700000E-04    4.5027290E-10
 -9.1649999E-04    4.8599830E-10
 -9.1599999E-04    4.8849297E-10
 -9.1549999E-04    4.5070409E-10
 -9.1499998E-04    3.6829115E-10
 -9.1449998E-04    2.4461957E-10
 -9.1399997E-04    8.3241240E-11
 -9.1349997E-04   -9.8753838E-11
 -9.1300003E-04   -2.8481836E-10
 -9.1250002E-04   -4.8336152E-10
 -9.1200002E-04   -6.7756456E-10
 -9.1150001E-04   -8.5711926E-10
 -9.1100001E-04   -1.0016805E-09
 -9.1050001E-04   -1.1001260E-09
 -9.1000000E-04   -1.1440465E-09
 -9.0950000E-04   -1.1259818E-09
 -9.0899999E-04   -1.0400658E-09
 -9.0849999E-04   -8.7249769E-10
 -9.0799999E-04   -6.4090966E-10
 -9.0749998E-04   -3.3852002E-10
 -9.0699998E-04   -6.2903146E-12
 -9.0649998E-04    3.3950337E-10
 -9.0599997E-04    7.0482892E-10
 -9.0550003E-04    1.0408578E-09
 -9.0500002E-04    1.3261597E-09
 -9.0450002E-04    1.5525965E-09
 -9.0400001E-04    1.6901928E-09
 -9.0350001E-04    1.7379312E-09
 -9.0300001E-04    1.6930990E-09
 -9.0250000E-04    1.5544076E-09
 -9.0200000E-04    1.3381329E-09
 -9.0150000E-04    1.0648915E-09
 -9.0099999E-04    7.5963980E-10
 -9.0049999E-04    4.4353679E-10
 -8.9999998E-04    1.1983793E-10
 -8.9949998E-04   -1.8324491E-10
 -8.9899998E-04   -4.3153189E-10
 -8.9849997E-04   -6.1742744E-10
 -8.9800003E-04   -7.1461831E-10
 -8.9750002E-04   -7.4860368E-10
 -8.9700002E-04   -7.2318107E-10
 -8.9650002E-04   -6.4567479E-10
 -8.9600001E-04   -5.2802046E-10
 -8.9550001E-04   -3.7835612E-10
 -8.9500000E-04   -2.0373464E-10
 -8.9450000E-04    1.2120170E-11
 -8.9400000E-04    2.4099645E-10
 -8.9349999E-04    4.8072407E-10
 -8.9299999E-04    7.0092071E-10
 -8.9249999E-04    8.5167318E-10
 -8.9199998E-04    9.4979979E-10
 -8.9149998E-04    1.0142891E-09
 -8.9099997E-04    1.0195064E-09
 -8.9050003E-04    9.4062991E-10
 -8.9000002E-04    8.0261692E-10
 -8.8950002E-04    6.1631777E-10
 -8.8900002E-04    3.8661518E-10
 -8.8850001E-04    1.2435962E-10
 -8.8800001E-04   -1.4657732E-10
 -8.8750001E-04   -4.5115228E-10
 -8.8700000E-04   -7.9370549E-10
 -8.8650000E-04   -1.0787505E-09
 -8.8599999E-04   -1.3903804E-09
 -8.8549999E-04   -1.6982128E-09
 -8.8499999E-04   -1.9741715E-09
 -8.8449998E-04   -2.1767521E-09
 -8.8399998E-04   -2.3172118E-09
 -8.8349998E-04   -2.3480784E-09
 -8.8299997E-04   -2.2834579E-09
 -8.8250003E-04   -2.0593300E-09
 -8.8200002E-04   -1.6756951E-09
 -8.8150002E-04   -1.1466588E-09
 -8.8100001E-04   -4.7330623E-10
 -8.8050001E-04    2.4182309E-10
 -8.8000001E-04    9.9818642E-10
 -8.7950000E-04    1.7474976E-09
 -8.7900000E-04    2.4485236E-09
 -8.7850000E-04    3.0528930E-09
 -8.7799999E-04    3.5520102E-09
 -8.7749999E-04    3.8639509E-09
 -8.7699998E-04    3.9664716E-09
 -8.7649998E-04    3.8432946E-09
 -8.7599998E-04    3.4971330E-09
 -8.7549997E-04    2.9448060E-09
 -8.7500003E-04    2.2074715E-09
 -8.7450002E-04    1.3670532E-09
 -8.7400002E-04    4.8214532E-10
 -8.7350002E-04   -3.5746200E-10
 -8.7300001E-04   -1.1586859E-09
 -8.7250001E-04   -1.8716124E-09
 -8.7200000E-04   -2.4323574E-09
 -8.7150000E-04   -2.8197611E-09
 -8.7100000E-04   -3.0324672E-09
 -8.7049999E-04   -3.0617942E-09
 -8.6999999E-04   -2.8898381E-09
 -8.6949999E-04   -2.5670548E-09
 -8.6899998E-04   -2.1254536E-09
 -8.6849998E-04   -1.5267859E-09
 -8.6799997E-04   -8.9827651E-10
 -8.6750003E-04   -1.8729943E-10
 -8.6700002E-04    5.4660132E-10
 -8.6650002E-04    1.3126146E-09
 -8.6600002E-04    2.0635729E-09
 -8.6550001E-04    2.7369484E-09
 -8.6500001E-04    3.2445786E-09
 -8.6450001E-04    3.5221714E-09
 -8.6400000E-04    3.5287653E-09
 -8.6350000E-04    3.2578493E-09
 -8.6299999E-04    2.7012852E-09
 -8.6249999E-04    1.9080366E-09
 -8.6199999E-04    9.0068653E-10
 -8.6149998E-04   -2.1971687E-10
 -8.6099998E-04   -1.3900352E-09
 -8.6049997E-04   -2.5687636E-09
 -8.5999997E-04   -3.5736087E-09
 -8.5950003E-04   -4.3343116E-09
 -8.5900002E-04   -4.7236459E-09
 -8.5850002E-04   -4.6957660E-09
 -8.5800001E-04   -4.2723740E-09
 -8.5750001E-04   -3.4583525E-09
 -8.5700001E-04   -2.3046991E-09
 -8.5650000E-04   -9.0310326E-10
 -8.5600000E-04    6.4172484E-10
 -8.5549999E-04    2.2169369E-09
 -8.5499999E-04    3.6779453E-09
 -8.5449999E-04    4.8831477E-09
 -8.5399998E-04    5.5593743E-09
 -8.5349998E-04    5.6898068E-09
 -8.5299998E-04    5.3124212E-09
 -8.5249997E-04    4.3284754E-09
 -8.5200003E-04    2.8432208E-09
 -8.5150002E-04    9.8686581E-10
 -8.5100002E-04   -1.0669771E-09
 -8.5050002E-04   -3.1642269E-09
 -8.5000001E-04   -5.1269309E-09
 -8.4950001E-04   -6.8237940E-09
 -8.4900000E-04   -8.0692670E-09
 -8.4850000E-04   -8.7741006E-09
 -8.4800000E-04   -8.8148671E-09
 -8.4749999E-04   -8.2045872E-09
 -8.4699999E-04   -6.9258972E-09
 -8.4649998E-04   -4.9983275E-09
 -8.4599998E-04   -2.5846385E-09
 -8.4549998E-04    1.5891867E-10
 -8.4499997E-04    2.9675851E-09
 -8.4450003E-04    5.7024709E-09
 -8.4400002E-04    8.0749452E-09
 -8.4350002E-04    9.9634789E-09
 -8.4300002E-04    1.1194459E-08
 -8.4250001E-04    1.1746181E-08
 -8.4200001E-04    1.1463208E-08
 -8.4150000E-04    1.0400607E-08
 -8.4100000E-04    8.6370431E-09
 -8.4050000E-04    6.1030732E-09
 -8.3999999E-04    3.2392355E-09
 -8.3949999E-04    2.1046220E-10
 -8.3899999E-04   -2.7662319E-09
 -8.3849998E-04   -5.4260880E-09
 -8.3799998E-04   -7.5868130E-09
 -8.3749997E-04   -9.1919814E-09
 -8.3700003E-04   -1.0180829E-08
 -8.3650002E-04   -1.0490419E-08
 -8.3600002E-04   -1.0202134E-08
 -8.3550002E-04   -9.2341832E-09
 -8.3500001E-04   -7.7898834E-09
 -8.3450001E-04   -5.8160636E-09
 -8.3400001E-04   -3.4429328E-09
 -8.3350000E-04   -7.0521250E-10
 -8.3300000E-04    2.1583815E-09
 -8.3249999E-04    5.0393414E-09
 -8.3199999E-04    7.8595415E-09
 -8.3149999E-04    1.0497452E-08
 -8.3099998E-04    1.2757760E-08
 -8.3049998E-04    1.4557998E-08
 -8.2999998E-04    1.5683321E-08
 -8.2949997E-04    1.5993754E-08
 -8.2900003E-04    1.5515337E-08
 -8.2850002E-04    1.4099411E-08
 -8.2800002E-04    1.1815422E-08
 -8.2750001E-04    8.7979171E-09
 -8.2700001E-04    4.9123470E-09
 -8.2650001E-04    4.4517062E-10
 -8.2600000E-04   -4.3258335E-09
 -8.2550000E-04   -9.1315666E-09
 -8.2500000E-04   -1.3772374E-08
 -8.2449999E-04   -1.7874989E-08
 -8.2399999E-04   -2.1209374E-08
 -8.2349998E-04   -2.3636636E-08
 -8.2299998E-04   -2.4967433E-08
 -8.2249998E-04   -2.5074263E-08
 -8.2199997E-04   -2.4002698E-08
 -8.2150003E-04   -2.1602999E-08
 -8.2100002E-04   -1.8170301E-08
 -8.2050002E-04   -1.3704605E-08
 -8.2000002E-04   -8.4663290E-09
 -8.1950001E-04   -2.6290830E-09
 -8.1900001E-04    3.3123368E-09
 -8.1850000E-04    9.2364019E-09
 -8.1800000E-04    1.4600573E-08
 -8.1750000E-04    1.9092347E-08
 -8.1699999E-04    2.2315673E-08
 -8.1649999E-04    2.4151730E-08
 -8.1599999E-04    2.4490380E-08
 -8.1549998E-04    2.3405407E-08
 -8.1499998E-04    2.0762261E-08
 -8.1449997E-04    1.6843060E-08
 -8.1400003E-04    1.1795374E-08
 -8.1350002E-04    5.9317014E-09
 -8.1300002E-04   -2.6184382E-10
 -8.1250002E-04   -6.3251884E-09
 -8.1200001E-04   -1.1789578E-08
 -8.1150001E-04   -1.6238344E-08
 -8.1100001E-04   -1.9330766E-08
 -8.1050000E-04   -2.1024526E-08
 -8.1000000E-04   -2.1108029E-08
 -8.0949999E-04   -1.9490129E-08
 -8.0899999E-04   -1.6518046E-08
 -8.0849999E-04   -1.2278584E-08
 -8.0799998E-04   -7.1016082E-09
 -8.0749998E-04   -1.4385079E-09
 -8.0699997E-04    3.9989048E-09
 -8.0649997E-04    8.8286818E-09
 -8.0600003E-04    1.2651515E-08
 -8.0550002E-04    1.5189618E-08
 -8.0500002E-04    1.6165211E-08
 -8.0450001E-04    1.5428551E-08
 -8.0400001E-04    1.3099536E-08
 -8.0350001E-04    9.3165102E-09
 -8.0300000E-04    4.2834669E-09
 -8.0250000E-04   -1.6263279E-09
 -8.0200000E-04   -7.8833562E-09
 -8.0149999E-04   -1.3853934E-08
 -8.0099999E-04   -1.9051944E-08
 -8.0049998E-04   -2.2817655E-08
 -7.9999998E-04   -2.4500022E-08
 -7.9949998E-04   -2.4324736E-08
 -7.9899997E-04   -2.2239711E-08
 -7.9850003E-04   -1.8501021E-08
 -7.9800002E-04   -1.2900330E-08
 -7.9750002E-04   -5.7447136E-09
 -7.9700002E-04    2.5220295E-09
 -7.9650001E-04    1.1379064E-08
 -7.9600001E-04    2.0066834E-08
 -7.9550000E-04    2.7730295E-08
 -7.9500000E-04    3.3692363E-08
 -7.9450000E-04    3.7466915E-08
 -7.9399999E-04    3.8793537E-08
 -7.9349999E-04    3.7481243E-08
 -7.9299998E-04    3.3660253E-08
 -7.9249998E-04    2.7625699E-08
 -7.9199998E-04    1.9933143E-08
 -7.9149997E-04    1.0656370E-08
 -7.9100003E-04    5.4190930E-10
 -7.9050002E-04   -9.8069313E-09
 -7.9000002E-04   -1.9659895E-08
 -7.8950002E-04   -2.8339896E-08
 -7.8900001E-04   -3.5227352E-08
 -7.8850001E-04   -4.0196401E-08
 -7.8800000E-04   -4.2865093E-08
 -7.8750000E-04   -4.2790720E-08
 -7.8700000E-04   -4.0155570E-08
 -7.8649999E-04   -3.4864161E-08
 -7.8599999E-04   -2.7472053E-08
 -7.8549999E-04   -1.8882027E-08
 -7.8499998E-04   -9.5367909E-09
 -7.8449998E-04   -9.2633418E-12
 -7.8399997E-04    9.0668726E-09
 -7.8350003E-04    1.7244568E-08
 -7.8300002E-04    2.4163583E-08
 -7.8250002E-04    2.9663331E-08
 -7.8200002E-04    3.3629341E-08
 -7.8150001E-04    3.6113153E-08
 -7.8100001E-04    3.7216768E-08
 -7.8050001E-04    3.7026997E-08
 -7.8000000E-04    3.6099390E-08
 -7.7950000E-04    3.4407915E-08
 -7.7899999E-04    3.2022001E-08
 -7.7849999E-04    2.9002418E-08
 -7.7799999E-04    2.5470683E-08
 -7.7749998E-04    2.1331301E-08
 -7.7699998E-04    1.6896770E-08
 -7.7649998E-04    1.2036874E-08
 -7.7599997E-04    6.9338957E-09
 -7.7550003E-04    1.7223827E-09
 -7.7500002E-04   -3.8819548E-09
 -7.7450002E-04   -9.8509094E-09
 -7.7400001E-04   -1.5941421E-08
 -7.7350001E-04   -2.1936470E-08
 -7.7300001E-04   -2.7853414E-08
 -7.7250000E-04   -3.3614118E-08
 -7.7200000E-04   -3.8645656E-08
 -7.7150000E-04   -4.2652875E-08
 -7.7099999E-04   -4.5097568E-08
 -7.7049999E-04   -4.5858204E-08
 -7.6999998E-04   -4.4448662E-08
 -7.6949998E-04   -4.0790805E-08
 -7.6899998E-04   -3.5040895E-08
 -7.6849997E-04   -2.7051355E-08
 -7.6800003E-04   -1.7751285E-08
 -7.6750002E-04   -7.5570892E-09
 -7.6700002E-04    3.2534455E-09
 -7.6650002E-04    1.3456347E-08
 -7.6600001E-04    2.2877995E-08
 -7.6550001E-04    3.1014906E-08
 -7.6500000E-04    3.7172626E-08
 -7.6450000E-04    4.0240028E-08
 -7.6400000E-04    3.9158071E-08
 -7.6349999E-04    3.3892032E-08
 -7.6299999E-04    2.4875941E-08
 -7.6249999E-04    1.2370211E-08
 -7.6199998E-04   -2.6789708E-09
 -7.6149998E-04   -1.9527237E-08
 -7.6099997E-04   -3.7156777E-08
 -7.6050003E-04   -5.3866195E-08
 -7.6000002E-04   -6.8257904E-08
 -7.5950002E-04   -7.9107927E-08
 -7.5900002E-04   -8.5287766E-08
 -7.5850001E-04   -8.5946731E-08
 -7.5800001E-04   -8.0581330E-08
 -7.5750001E-04   -6.8861695E-08
 -7.5700000E-04   -5.1673251E-08
 -7.5650000E-04   -2.9918763E-08
 -7.5599999E-04   -4.8222115E-09
 -7.5549999E-04    2.2192790E-08
 -7.5499999E-04    4.9276721E-08
 -7.5449998E-04    7.4854590E-08
 -7.5399998E-04    9.6630380E-08
 -7.5349997E-04    1.1278115E-07
 -7.5299997E-04    1.2224785E-07
 -7.5250003E-04    1.2378047E-07
 -7.5200002E-04    1.1750053E-07
 -7.5150002E-04    1.0318231E-07
 -7.5100001E-04    8.2041105E-08
 -7.5050001E-04    5.5344273E-08
 -7.5000001E-04    2.5626557E-08
 -7.4950000E-04   -4.7943303E-09
 -7.4900000E-04   -3.3483467E-08
 -7.4850000E-04   -5.8124211E-08
 -7.4799999E-04   -7.6853489E-08
 -7.4749999E-04   -8.8742460E-08
 -7.4699998E-04   -9.2923067E-08
 -7.4649998E-04   -8.9117506E-08
 -7.4599998E-04   -7.7447304E-08