 -1.2000001E-03    1.0000000E-24
 -1.1995001E-03    1.0000000E-24
 -1.1990000E-03    1.0000000E-24
 -1.1985000E-03    1.0000000E-24
 -1.1980000E-03    1.0000000E-24
 -1.1975000E-03    1.0000000E-24
 -1.1970000E-03    1.0000000E-24
 -1.1965000E-03    1.0000000E-24
 -1.1960000E-03    1.0000001E-24
 -1.1955000E-03    1.0000001E-24
 -1.1950000E-03    1.0000001E-24
 -1.1945000E-03    1.0000001E-24
 -1.1940000E-03    1.0000001E-24
 -1.1935000E-03    1.0000001E-24
 -1.1930000E-03    1.0000001E-24
 -1.1925000E-03    1.0000001E-24
 -1.1920000E-03    1.0000001E-24
 -1.1915000E-03    1.0000001E-24
 -1.1910000E-03    1.0000001E-24
 -1.1905000E-03    1.0000001E-24
 -1.1900000E-03    1.0000001E-24
 -1.1895000E-03    1.0000001E-24
 -1.1890000E-03    1.0000001E-24
 -1.1885000E-03    1.0000001E-24
 -1.1880000E-03    1.0000001E-24
 -1.1875000E-03    1.0000001E-24
 -1.1870000E-03    1.0000002E-24
 -1.1865000E-03    1.0000002E-24
 -1.1860000E-03    1.0000002E-24
 -1.1854999E-03    1.0000002E-24
 -1.1849999E-03    1.0000002E-24
 -1.1845001E-03    1.0000002E-24
 -1.1840001E-03    1.0000002E-24
 -1.1835000E-03    1.0000002E-24
 -1.1830000E-03    1.0000002E-24
 -1.1825000E-03    1.0000002E-24
 -1.1820000E-03    1.0000002E-24
 -1.1815000E-03    1.0000001E-24
 -1.1810000E-03    1.0000000E-24
 -1.1805000E-03    1.0000000E-24
 -1.1800000E-03    1.0000000E-24
 -1.1795000E-03    1.0000000E-24
 -1.1790000E-03    1.0000000E-24
 -1.1785000E-03    1.0000001E-24
 -1.1780000E-03    1.0000002E-24
 -1.1775000E-03    1.0000003E-24
 -1.1770000E-03    1.0000004E-24
 -1.1765000E-03    1.0000005E-24
 -1.1760000E-03    1.0000005E-24
 -1.1755000E-03    1.0000005E-24
 -1.1750000E-03    1.0000005E-24
 -1.1745000E-03    1.0000005E-24
 -1.1740000E-03    1.0000005E-24
 -1.1735000E-03    1.0000005E-24
 -1.1730000E-03    1.0000004E-24
 -1.1725000E-03    1.0000003E-24
 -1.1720000E-03    1.0000002E-24
 -1.1715000E-03    1.0000001E-24
 -1.1710000E-03    1.0000000E-24
 -1.1704999E-03    9.9999992E-25
 -1.1699999E-03    9.9999992E-25
 -1.1695001E-03    9.9999992E-25
 -1.1690001E-03    9.9999992E-25
 -1.1685000E-03    9.9999992E-25
 -1.1680000E-03    1.0000000E-24
 -1.1675000E-03    1.0000001E-24
 -1.1670000E-03    1.0000003E-24
 -1.1665000E-03    1.0000004E-24
 -1.1660000E-03    1.0000004E-24
 -1.1655000E-03    1.0000002E-24
 -1.1650000E-03    9.9999992E-25
 -1.1645000E-03    9.9999963E-25
 -1.1640000E-03    9.9999953E-25
 -1.1635000E-03    1.0000002E-24
 -1.1630000E-03    1.0000019E-24
 -1.1625000E-03    1.0000019E-24
 -1.1620000E-03    1.0000019E-24
 -1.1615000E-03    9.9999992E-25
 -1.1610000E-03    9.9999854E-25
 -1.1605000E-03    9.9999716E-25
 -1.1600000E-03    9.9998513E-25
 -1.1595000E-03    9.9997487E-25
 -1.1590000E-03    9.9997734E-25
 -1.1585000E-03    9.9997764E-25
 -1.1580000E-03    9.9997704E-25
 -1.1575000E-03    9.9998582E-25
 -1.1570000E-03    9.9997201E-25
 -1.1565000E-03    9.9996008E-25
 -1.1560000E-03    9.9991433E-25
 -1.1555000E-03    9.9989116E-25
 -1.1549999E-03    9.9998464E-25
 -1.1544999E-03    9.9990496E-25
 -1.1540001E-03    9.9981395E-25
 -1.1535001E-03    9.9998276E-25
 -1.1530000E-03    1.0000085E-24
 -1.1525000E-03    1.0006582E-24
 -1.1520000E-03    1.0013380E-24
 -1.1515000E-03    1.0015962E-24
 -1.1510000E-03    1.0013123E-24
 -1.1505000E-03    1.0005767E-24
 -1.1500000E-03    9.9785333E-25
 -1.1495000E-03    9.9723812E-25
 -1.1490000E-03    9.9794809E-25
 -1.1485000E-03    9.9877847E-25
 -1.1480000E-03    9.9587438E-25
 -1.1475000E-03    9.9694575E-25
 -1.1470000E-03    9.8994579E-25
 -1.1465000E-03    9.7866932E-25
 -1.1460000E-03    9.7038944E-25
 -1.1455000E-03    9.5704990E-25
 -1.1450000E-03    9.4684253E-25
 -1.1445000E-03    9.3615327E-25
 -1.1440000E-03    9.1871786E-25
 -1.1435000E-03    9.0802860E-25
 -1.1430000E-03    9.5901840E-25
 -1.1425000E-03    9.6567639E-25
 -1.1420000E-03    9.8004430E-25
 -1.1415000E-03    1.0310341E-24
 -1.1410000E-03    1.0569668E-24
 -1.1405000E-03    1.1272314E-24
 -1.1399999E-03    1.2177343E-24
 -1.1394999E-03    1.2795661E-24
 -1.1390001E-03    1.3452529E-24
 -1.1385001E-03    1.3685353E-24
 -1.1380001E-03    1.1990707E-24
 -1.1375000E-03    1.0450259E-24
 -1.1370000E-03    9.0640079E-25
 -1.1365000E-03    6.9067686E-25
 -1.1360000E-03    8.6044707E-25
 -1.1355000E-03    3.2090812E-25
 -1.1350000E-03   -5.5786567E-25
 -1.1345000E-03   -1.8375533E-24
 -1.1340000E-03   -2.2691537E-24
 -1.1335000E-03   -2.6159454E-24
 -1.1330000E-03   -2.7892648E-24
 -1.1325000E-03   -3.6410538E-24
 -1.1320000E-03   -4.8320775E-24
 -1.1315000E-03   -5.4679902E-24
 -1.1310000E-03   -6.4739767E-24
 -1.1305000E-03   -5.5062337E-24
 -1.1300000E-03   -2.9348351E-24
 -1.1295000E-03    6.6378701E-27
 -1.1290000E-03    8.1291517E-24
 -1.1285000E-03    2.1926138E-23
 -1.1280000E-03    4.6455280E-23
 -1.1275000E-03    7.4068372E-23
 -1.1270000E-03    1.0134223E-22
 -1.1265000E-03    1.2047446E-22
 -1.1260000E-03    1.4281399E-22
 -1.1255000E-03    1.5281772E-22
 -1.1250000E-03    1.5147250E-22
 -1.1244999E-03    1.2101477E-22
 -1.1239999E-03    8.4635845E-23
 -1.1235001E-03    5.2204379E-23
 -1.1230001E-03    8.1945400E-23
 -1.1225000E-03    1.2056820E-22
 -1.1220000E-03    1.5326982E-22
 -1.1215000E-03    1.4353623E-22
 -1.1210000E-03    1.6044801E-22
 -1.1205000E-03    1.1062304E-22
 -1.1200000E-03    8.0535371E-23
 -1.1195000E-03    8.4001109E-23
 -1.1190000E-03    1.6049485E-22
 -1.1185000E-03    3.3962252E-22
 -1.1180000E-03    5.2269767E-22
 -1.1175000E-03    7.8077454E-22
 -1.1170000E-03    1.0230616E-21
 -1.1165000E-03    1.4429843E-21
 -1.1160000E-03    2.0365952E-21
 -1.1155000E-03    2.7959993E-21
 -1.1150000E-03    3.2297380E-21
 -1.1145000E-03    3.4516090E-21
 -1.1140000E-03    3.6912438E-21
 -1.1135000E-03    3.7650854E-21
 -1.1130000E-03    3.5941842E-21
 -1.1125000E-03    3.0285372E-21
 -1.1120000E-03    2.3523613E-21
 -1.1115000E-03    1.4709176E-21
 -1.1110000E-03    2.4209735E-22
 -1.1105000E-03   -7.8145505E-22
 -1.1100000E-03   -2.5944992E-21
 -1.1094999E-03   -3.9338484E-21
 -1.1089999E-03   -4.1679091E-21
 -1.1084999E-03   -4.2499926E-21
 -1.1080001E-03   -4.0794387E-21
 -1.1075001E-03   -3.6246675E-21
 -1.1070000E-03   -3.7067510E-21
 -1.1065000E-03   -3.2835597E-21
 -1.1060000E-03   -1.4077031E-21
 -1.1055000E-03    6.5763141E-22
 -1.1050000E-03    2.9756031E-21
 -1.1045000E-03    8.5147024E-21
 -1.1040000E-03    1.1780065E-20
 -1.1035000E-03    1.5961238E-20
 -1.1030000E-03    1.9400289E-20
 -1.1025000E-03    2.4244635E-20
 -1.1020000E-03    2.8583704E-20
 -1.1015000E-03    3.0459563E-20
 -1.1010000E-03    2.6145803E-20
 -1.1005000E-03    1.3116053E-20
 -1.1000000E-03   -5.5980409E-21
 -1.0995000E-03   -2.9617518E-20
 -1.0990000E-03   -5.8058153E-20
 -1.0985000E-03   -8.7635650E-20
 -1.0980000E-03   -1.1114985E-19
 -1.0975000E-03   -1.2531647E-19
 -1.0970000E-03   -1.2717491E-19
 -1.0965000E-03   -1.1690675E-19
 -1.0960000E-03   -9.4764641E-20
 -1.0955000E-03   -5.8474832E-20
 -1.0950000E-03   -1.6121724E-20
 -1.0945000E-03    2.5220834E-20
 -1.0939999E-03    7.7679433E-20
 -1.0934999E-03    1.2255892E-19
 -1.0930001E-03    1.5935399E-19
 -1.0925001E-03    1.8705413E-19
 -1.0920000E-03    1.7357436E-19
 -1.0915000E-03    1.3998230E-19
 -1.0910000E-03    8.7442432E-20
 -1.0905000E-03    8.6282757E-21
 -1.0900000E-03   -7.1701696E-20
 -1.0895000E-03   -1.4596838E-19
 -1.0890000E-03   -2.0406626E-19
 -1.0885000E-03   -2.6620637E-19
 -1.0880000E-03   -3.2026208E-19
 -1.0875000E-03   -3.2783251E-19
 -1.0870000E-03   -2.7476996E-19
 -1.0865000E-03   -1.8633818E-19
 -1.0860000E-03   -6.7321464E-20
 -1.0855000E-03    6.1800732E-20
 -1.0850000E-03    2.1517613E-19
 -1.0845000E-03    4.1301573E-19
 -1.0840000E-03    6.3915067E-19
 -1.0835000E-03    8.0263160E-19
 -1.0830000E-03    1.0287666E-18
 -1.0825000E-03    1.2205429E-18
 -1.0820000E-03    1.3678550E-18
 -1.0815000E-03    1.4424076E-18
 -1.0810000E-03    1.4361161E-18
 -1.0805000E-03    1.3339488E-18
 -1.0800000E-03    1.1327476E-18
 -1.0795000E-03    8.0219614E-19
 -1.0790000E-03    2.1294390E-19
 -1.0784999E-03   -5.0565871E-19
 -1.0779999E-03   -1.4506244E-18
 -1.0775001E-03   -2.5330247E-18
 -1.0770001E-03   -3.7932820E-18
 -1.0765000E-03   -4.7948384E-18
 -1.0760000E-03   -5.6427912E-18
 -1.0755000E-03   -5.9551528E-18
 -1.0750000E-03   -5.9248118E-18
 -1.0745000E-03   -5.2113392E-18
 -1.0740000E-03   -3.8996214E-18
 -1.0735000E-03   -2.1351773E-18
 -1.0730000E-03   -1.4437011E-19
 -1.0725000E-03    1.8787745E-18
 -1.0720000E-03    4.2899704E-18
 -1.0715000E-03    6.8951915E-18
 -1.0710000E-03    9.8561258E-18
 -1.0705000E-03    1.2396671E-17
 -1.0700000E-03    1.4621926E-17
 -1.0695000E-03    1.6263082E-17
 -1.0690000E-03    1.7479809E-17
 -1.0685000E-03    1.8082120E-17
 -1.0680000E-03    1.7795148E-17
 -1.0675000E-03    1.6667398E-17
 -1.0670000E-03    1.4246145E-17
 -1.0665000E-03    1.0822427E-17
 -1.0660000E-03    6.2345550E-18
 -1.0655000E-03   -2.9357178E-19
 -1.0650000E-03   -7.2420870E-18
 -1.0645000E-03   -1.4999041E-17
 -1.0640000E-03   -2.2173920E-17
 -1.0634999E-03   -2.9419535E-17
 -1.0629999E-03   -3.5662688E-17
 -1.0625001E-03   -3.9383508E-17
 -1.0620001E-03   -3.9062129E-17
 -1.0615001E-03   -3.6024391E-17
 -1.0610000E-03   -2.9817571E-17
 -1.0605000E-03   -1.9148164E-17
 -1.0600000E-03   -5.8270738E-18
 -1.0595000E-03    8.5934934E-18
 -1.0590000E-03    2.4372240E-17
 -1.0585000E-03    4.0991762E-17
 -1.0580000E-03    5.6802850E-17
 -1.0575000E-03    6.8393880E-17
 -1.0570000E-03    7.6007390E-17
 -1.0565000E-03    7.5310136E-17
 -1.0560000E-03    6.6269787E-17
 -1.0555000E-03    5.0244515E-17
 -1.0550000E-03    3.0920809E-17
 -1.0545000E-03    6.6817896E-18
 -1.0540000E-03   -2.6223707E-17
 -1.0535000E-03   -5.7965045E-17
 -1.0530000E-03   -8.9706387E-17
 -1.0525000E-03   -1.1976617E-16
 -1.0520000E-03   -1.4206494E-16
 -1.0515000E-03   -1.5233411E-16
 -1.0510000E-03   -1.5193189E-16
 -1.0505000E-03   -1.4047021E-16
 -1.0500000E-03   -1.1245168E-16
 -1.0495000E-03   -6.8717096E-17
 -1.0490000E-03   -2.3721340E-17
 -1.0485000E-03    3.0822093E-17
 -1.0479999E-03    1.0011147E-16
 -1.0474999E-03    1.6920682E-16
 -1.0470001E-03    2.4037178E-16
 -1.0465001E-03    2.9911910E-16
 -1.0460000E-03    3.2940934E-16
 -1.0455000E-03    3.1830746E-16
 -1.0450000E-03    2.6943528E-16
 -1.0445000E-03    1.6727076E-16
 -1.0440000E-03    3.5614361E-17
 -1.0435000E-03   -9.0350609E-17
 -1.0430000E-03   -2.2821582E-16
 -1.0425000E-03   -3.6194181E-16
 -1.0420000E-03   -5.1222465E-16
 -1.0415000E-03   -6.5254751E-16
 -1.0410000E-03   -7.7256234E-16
 -1.0405000E-03   -8.6256790E-16
 -1.0400000E-03   -9.0290292E-16
 -1.0395000E-03   -8.9046297E-16
 -1.0390000E-03   -8.2421335E-16
 -1.0385000E-03   -7.7659014E-16
 -1.0380000E-03   -6.6894840E-16
 -1.0375000E-03   -4.8680085E-16
 -1.0370000E-03   -2.7774840E-16
 -1.0365000E-03   -1.0387926E-16
 -1.0360000E-03    5.1363429E-17
 -1.0355000E-03    3.3699126E-16
 -1.0350000E-03    5.9561721E-16
 -1.0345000E-03    1.0498209E-15
 -1.0340000E-03    1.6178528E-15
 -1.0335000E-03    2.1362143E-15
 -1.0329999E-03    2.5842092E-15
 -1.0324999E-03    2.8004082E-15
 -1.0319999E-03    2.9007094E-15
 -1.0315001E-03    2.8354422E-15
 -1.0310001E-03    2.7701749E-15
 -1.0305000E-03    2.5972880E-15
 -1.0300000E-03    2.3581738E-15
 -1.0295000E-03    1.9700481E-15
 -1.0290000E-03    1.2093932E-15
 -1.0285000E-03    2.4177783E-16
 -1.0280000E-03   -1.0321393E-15
 -1.0275000E-03   -2.4053974E-15
 -1.0270000E-03   -3.8117694E-15
 -1.0265000E-03   -5.2181414E-15
 -1.0260000E-03   -6.6741834E-15
 -1.0255000E-03   -7.6169633E-15
 -1.0250000E-03   -8.1789357E-15
 -1.0245000E-03   -8.3601008E-15
 -1.0240000E-03   -7.8789921E-15
 -1.0235000E-03   -6.7024959E-15
 -1.0230000E-03   -5.0655128E-15
 -1.0225000E-03   -3.0146083E-15
 -1.0220000E-03   -4.0077110E-16
 -1.0215000E-03    2.4283054E-15
 -1.0210000E-03    5.0918132E-15
 -1.0205000E-03    8.1526853E-15
 -1.0200000E-03    1.1346012E-14
 -1.0195000E-03    1.3910179E-14
 -1.0190000E-03    1.5977640E-14
 -1.0185000E-03    1.7283487E-14
 -1.0180000E-03    1.7099218E-14
 -1.0174999E-03    1.5540730E-14
 -1.0169999E-03    1.2214800E-14
 -1.0165001E-03    8.1438110E-15
 -1.0160001E-03    4.4370728E-15
 -1.0155000E-03    8.6278945E-16
 -1.0150000E-03   -1.9829926E-15
 -1.0145000E-03   -4.8950021E-15
 -1.0140000E-03   -7.0122830E-15
 -1.0135000E-03   -8.7984268E-15
 -1.0130000E-03   -1.0650798E-14
 -1.0125000E-03   -1.1907123E-14
 -1.0120000E-03   -1.2898539E-14
 -1.0115000E-03   -1.3923068E-14
 -1.0110000E-03   -1.5017965E-14
 -1.0105000E-03   -1.4755200E-14
 -1.0100000E-03   -1.2240704E-14
 -1.0095000E-03   -7.1433389E-15
 -1.0090000E-03   -1.2512460E-15
 -1.0085000E-03    6.7601229E-15
 -1.0080000E-03    1.8082861E-14
 -1.0075000E-03    2.8478417E-14
 -1.0070000E-03    3.8741518E-14
 -1.0065000E-03    4.7944982E-14
 -1.0060000E-03    5.5161625E-14
 -1.0055000E-03    6.0590130E-14
 -1.0050000E-03    6.5923429E-14
 -1.0045000E-03    6.7945358E-14
 -1.0040000E-03    6.4669095E-14
 -1.0035000E-03    5.2518367E-14
 -1.0030000E-03    2.9771257E-14
 -1.0025000E-03    4.3750522E-15
 -1.0019999E-03   -3.0557893E-14
 -1.0014999E-03   -7.4232849E-14
 -1.0010001E-03   -1.2108672E-13
 -1.0005001E-03   -1.6701340E-13
 -1.0000000E-03   -2.0870155E-13
 -9.9950004E-04   -2.4131654E-13
 -9.9900004E-04   -2.6189885E-13
 -9.9850004E-04   -2.6155331E-13
 -9.9800003E-04   -2.4504829E-13
 -9.9750003E-04   -2.0231722E-13
 -9.9700002E-04   -1.4104248E-13
 -9.9650002E-04   -6.4932807E-14
 -9.9600002E-04    2.8660891E-14
 -9.9550001E-04    1.2463877E-13
 -9.9500001E-04    2.1134482E-13
 -9.9450001E-04    2.8374576E-13
 -9.9400000E-04    3.4475558E-13
 -9.9350000E-04    3.7980429E-13
 -9.9299999E-04    3.9646661E-13
 -9.9249999E-04    3.8279679E-13
 -9.9199999E-04    3.4422549E-13
 -9.9149998E-04    2.8048776E-13
 -9.9099998E-04    1.7992762E-13
 -9.9049998E-04    4.4399421E-14
 -9.8999997E-04   -1.0490408E-13
 -9.8949997E-04   -2.5155849E-13
 -9.8899996E-04   -3.8867612E-13
 -9.8849996E-04   -5.0989920E-13
 -9.8799996E-04   -6.0198228E-13
 -9.8749995E-04   -6.5962708E-13
 -9.8699995E-04   -6.6879347E-13
 -9.8649994E-04   -6.2722966E-13
 -9.8600006E-04   -5.4460489E-13
 -9.8550005E-04   -4.2330335E-13
 -9.8500005E-04   -2.6862318E-13
 -9.8450005E-04   -7.6855704E-14
 -9.8400004E-04    1.3080632E-13
 -9.8350004E-04    3.3422980E-13
 -9.8300003E-04    5.3288488E-13
 -9.8250003E-04    7.0451923E-13
 -9.8200003E-04    8.3376806E-13
 -9.8150002E-04    9.1506826E-13
 -9.8100002E-04    9.3881684E-13
 -9.8050002E-04    9.2183563E-13
 -9.8000001E-04    8.3266651E-13
 -9.7950001E-04    6.7753496E-13
 -9.7900000E-04    4.3869200E-13
 -9.7850000E-04    1.3839000E-13
 -9.7800000E-04   -1.5714359E-13
 -9.7749999E-04   -4.6804195E-13
 -9.7699999E-04   -7.6701937E-13
 -9.7649998E-04   -1.0196377E-12
 -9.7599998E-04   -1.1821867E-12
 -9.7549998E-04   -1.2358580E-12
 -9.7499997E-04   -1.1795918E-12
 -9.7450003E-04   -1.0203420E-12
 -9.7400002E-04   -7.4910174E-13
 -9.7350002E-04   -4.1335595E-13
 -9.7300002E-04   -1.5749663E-14
 -9.7250001E-04    4.4419313E-13
 -9.7200001E-04    8.7489656E-13
 -9.7150001E-04    1.2299020E-12
 -9.7100000E-04    1.4692083E-12
 -9.7050000E-04    1.6164586E-12
 -9.6999999E-04    1.6916534E-12
 -9.6949999E-04    1.6002202E-12
 -9.6899999E-04    1.3858690E-12
 -9.6849998E-04    1.0517786E-12
 -9.6799998E-04    6.1755240E-13
 -9.6749997E-04    9.2197300E-14
 -9.6700003E-04   -4.9991500E-13
 -9.6650003E-04   -1.1418303E-12
 -9.6600002E-04   -1.7466584E-12
 -9.6550002E-04   -2.3440689E-12
 -9.6500001E-04   -2.8408140E-12
 -9.6450001E-04   -3.1672219E-12
 -9.6400001E-04   -3.3552809E-12
 -9.6350000E-04   -3.3806855E-12
 -9.6300000E-04   -3.1920432E-12
 -9.6249999E-04   -2.8317396E-12
 -9.6199999E-04   -2.2870590E-12
 -9.6149999E-04   -1.5537628E-12
 -9.6099998E-04   -6.5728228E-13
 -9.6049998E-04    3.6847413E-13
 -9.5999998E-04    1.4917171E-12
 -9.5949997E-04    2.6043638E-12
 -9.5900003E-04    3.6852214E-12
 -9.5850002E-04    4.7703174E-12
 -9.5800002E-04    5.7665366E-12
 -9.5750001E-04    6.4459237E-12
 -9.5700001E-04    6.9133831E-12
 -9.5650001E-04    6.9930151E-12
 -9.5600000E-04    6.6318374E-12
 -9.5550000E-04    5.8044190E-12
 -9.5500000E-04    4.5361913E-12
 -9.5449999E-04    2.8737783E-12
 -9.5399999E-04    8.2141845E-13
 -9.5349998E-04   -1.5149243E-12
 -9.5299998E-04   -3.9572308E-12
 -9.5249998E-04   -6.4419229E-12
 -9.5199997E-04   -8.8402549E-12
 -9.5150003E-04   -1.0723603E-11
 -9.5100002E-04   -1.1988121E-11
 -9.5050002E-04   -1.2371022E-11
 -9.5000002E-04   -1.1906211E-11
 -9.4950001E-04   -1.0356331E-11
 -9.4900001E-04   -8.1537138E-12
 -9.4850000E-04   -5.3237909E-12
 -9.4800000E-04   -1.8072226E-12
 -9.4750000E-04    2.1077699E-12
 -9.4699999E-04    6.0821018E-12
 -9.4649999E-04    1.0242931E-11
 -9.4599999E-04    1.3948115E-11
 -9.4549998E-04    1.7418060E-11
 -9.4499998E-04    1.9862275E-11
 -9.4449997E-04    2.1179036E-11
 -9.4400003E-04    2.1283570E-11
 -9.4350002E-04    1.9811363E-11
 -9.4300002E-04    1.6864139E-11
 -9.4250002E-04    1.2713166E-11
 -9.4200001E-04    7.7144836E-12
 -9.4150001E-04    2.3173763E-12
 -9.4100001E-04   -3.1221158E-12
 -9.4050000E-04   -8.0360276E-12
 -9.4000000E-04   -1.2576946E-11
 -9.3949999E-04   -1.6293467E-11
 -9.3899999E-04   -1.8602788E-11
 -9.3849999E-04   -1.9606634E-11
 -9.3799998E-04   -1.8898105E-11
 -9.3749998E-04   -1.6358522E-11
 -9.3699998E-04   -1.2225243E-11
 -9.3649997E-04   -6.9899407E-12
 -9.3600003E-04   -1.1781951E-12
 -9.3550002E-04    4.7352755E-12
 -9.3500002E-04    1.0987830E-11
 -9.3450001E-04    1.6799576E-11
 -9.3400001E-04    2.1695794E-11
 -9.3350001E-04    2.4753539E-11
 -9.3300000E-04    2.6031094E-11
 -9.3250000E-04    2.6189670E-11
 -9.3200000E-04    2.5517489E-11
 -9.3149999E-04    2.3387247E-11
 -9.3099999E-04    1.9985439E-11
 -9.3049998E-04    1.5278157E-11
 -9.2999998E-04    9.7231650E-12
 -9.2949998E-04    3.4560952E-12
 -9.2899997E-04   -2.8787910E-12
 -9.2850003E-04   -9.2221543E-12
 -9.2800002E-04   -1.5001790E-11
 -9.2750002E-04   -2.0050541E-11
 -9.2700002E-04   -2.4319397E-11
 -9.2650001E-04   -2.7096284E-11
 -9.2600001E-04   -2.8330336E-11
 -9.2550000E-04   -2.8462366E-11
 -9.2500000E-04   -2.8136632E-11
 -9.2450000E-04   -2.5539034E-11
 -9.2399999E-04   -2.1771595E-11
 -9.2349999E-04   -1.6613912E-11
 -9.2299999E-04   -1.0099891E-11
 -9.2249998E-04   -2.2125808E-12
 -9.2199998E-04    6.1579249E-12
 -9.2149997E-04    1.3945198E-11
 -9.2100003E-04    2.0715219E-11
 -9.2050002E-04    2.5900022E-11
 -9.2000002E-04    2.9881077E-11
 -9.1950002E-04    3.1963258E-11
 -9.1900001E-04    3.1790532E-11
 -9.1850001E-04    2.8888177E-11
 -9.1800001E-04    2.2866247E-11
 -9.1750000E-04    1.5640569E-11
 -9.1700000E-04    6.9059654E-12
 -9.1649999E-04   -3.0832489E-12
 -9.1599999E-04   -1.3534465E-11
 -9.1549999E-04   -2.3718652E-11
 -9.1499998E-04   -3.2877111E-11
 -9.1449998E-04   -3.9831520E-11
 -9.1399997E-04   -4.3852852E-11
 -9.1349997E-04   -4.4754610E-11
 -9.1300003E-04   -4.1621265E-11
 -9.1250002E-04   -3.6012606E-11
 -9.1200002E-04   -2.7691273E-11
 -9.1150001E-04   -1.6080822E-11
 -9.1100001E-04   -2.2493717E-12
 -9.1050001E-04    1.2455220E-11
 -9.1000000E-04    2.6329057E-11
 -9.0950000E-04    3.8827483E-11
 -9.0899999E-04    4.9367697E-11
 -9.0849999E-04    5.7491938E-11
 -9.0799999E-04    6.1021591E-11
 -9.0749998E-04    5.9651471E-11
 -9.0699998E-04    5.4797264E-11
 -9.0649998E-04    4.7493176E-11
 -9.0599997E-04    3.3602378E-11
 -9.0550003E-04    1.6316497E-11
 -9.0500002E-04   -4.3506899E-12
 -9.0450002E-04   -2.7315171E-11
 -9.0400001E-04   -5.1407108E-11
 -9.0350001E-04   -7.4630142E-11
 -9.0300001E-04   -9.5293093E-11
 -9.0250000E-04   -1.1221976E-10
 -9.0200000E-04   -1.2342279E-10
 -9.0150000E-04   -1.2757287E-10
 -9.0099999E-04   -1.2301273E-10
 -9.0049999E-04   -1.1117922E-10
 -8.9999998E-04   -9.3233719E-11
 -8.9949998E-04   -7.0507135E-11
 -8.9899998E-04   -3.9812074E-11
 -8.9849997E-04   -4.2511585E-12
 -8.9800003E-04    3.2878023E-11
 -8.9750002E-04    7.0685374E-11
 -8.9700002E-04    1.0680049E-10
 -8.9650002E-04    1.3888049E-10
 -8.9600001E-04    1.6617942E-10
 -8.9550001E-04    1.8511992E-10
 -8.9500000E-04    1.9459998E-10
 -8.9450000E-04    1.9041493E-10
 -8.9400000E-04    1.7717634E-10
 -8.9349999E-04    1.5369742E-10
 -8.9299999E-04    1.2150402E-10
 -8.9249999E-04    8.1036969E-11
 -8.9199998E-04    3.4635943E-11
 -8.9149998E-04   -1.0612195E-11
 -8.9099997E-04   -5.1282697E-11
 -8.9050003E-04   -8.4730709E-11
 -8.9000002E-04   -1.0804010E-10
 -8.8950002E-04   -1.2070224E-10
 -8.8900002E-04   -1.1973320E-10
 -8.8850001E-04   -1.0438699E-10
 -8.8800001E-04   -7.6562479E-11
 -8.8750001E-04   -3.6937842E-11
 -8.8700000E-04    9.0615813E-12
 -8.8650000E-04    5.7638051E-11
 -8.8599999E-04    9.9704106E-11
 -8.8549999E-04    1.3814196E-10
 -8.8499999E-04    1.6750931E-10
 -8.8449998E-04    1.8180436E-10
 -8.8399998E-04    1.8345157E-10
 -8.8349998E-04    1.7139978E-10
 -8.8299997E-04    1.4659843E-10
 -8.8250003E-04    1.1135329E-10
 -8.8200002E-04    6.5257452E-11
 -8.8150002E-04    1.7127112E-11
 -8.8100001E-04   -3.0053793E-11
 -8.8050001E-04   -7.5742732E-11
 -8.8000001E-04   -1.2129603E-10
 -8.7950000E-04   -1.5660899E-10
 -8.7900000E-04   -1.8446210E-10
 -8.7850000E-04   -2.0201976E-10
 -8.7799999E-04   -2.0808248E-10
 -8.7749999E-04   -2.0071746E-10
 -8.7699998E-04   -1.8182357E-10
 -8.7649998E-04   -1.4814561E-10
 -8.7599998E-04   -1.0538020E-10
 -8.7549997E-04   -5.5968740E-11
 -8.7500003E-04   -6.1503823E-12
 -8.7450002E-04    3.8378262E-11
 -8.7400002E-04    7.3819451E-11
 -8.7350002E-04    9.7596140E-11
 -8.7300001E-04    1.1330263E-10
 -8.7250001E-04    1.0417121E-10
 -8.7200000E-04    8.2358030E-11
 -8.7150000E-04    5.9527605E-11
 -8.7100000E-04    3.1949998E-11
 -8.7049999E-04    1.0204643E-11
 -8.6999999E-04   -1.3846486E-11
 -8.6949999E-04   -3.7355081E-11
 -8.6899998E-04   -5.7608467E-11
 -8.6849998E-04   -7.6234248E-11
 -8.6799997E-04   -1.0313368E-10
 -8.6750003E-04   -1.3762860E-10
 -8.6700002E-04   -1.7714197E-10
 -8.6650002E-04   -2.1246765E-10
 -8.6600002E-04   -2.4826805E-10
 -8.6550001E-04   -2.6867403E-10
 -8.6500001E-04   -2.8568917E-10
 -8.6450001E-04   -2.8520755E-10
 -8.6400000E-04   -2.6356708E-10
 -8.6350000E-04   -2.2768509E-10
 -8.6299999E-04   -1.6752466E-10
 -8.6249999E-04   -8.9053681E-11
 -8.6199999E-04    1.1254317E-11
 -8.6149998E-04    1.4533511E-10
 -8.6099998E-04    3.0654265E-10
 -8.6049997E-04    4.6427459E-10
 -8.5999997E-04    6.1359723E-10
 -8.5950003E-04    7.2833328E-10
 -8.5900002E-04    8.0237927E-10
 -8.5850002E-04    8.2976725E-10
 -8.5800001E-04    8.0330864E-10
 -8.5750001E-04    7.2992079E-10
 -8.5700001E-04    5.9631161E-10
 -8.5650000E-04    4.1577317E-10
 -8.5600000E-04    2.0851487E-10
 -8.5549999E-04   -1.1967718E-11
 -8.5499999E-04   -2.3970670E-10
 -8.5449999E-04   -4.5929072E-10
 -8.5399998E-04   -6.5030686E-10
 -8.5349998E-04   -7.9103685E-10
 -8.5299998E-04   -8.8883878E-10
 -8.5249997E-04   -9.5035868E-10
 -8.5200003E-04   -9.4365482E-10
 -8.5150002E-04   -8.6791341E-10
 -8.5100002E-04   -7.3452772E-10
 -8.5050002E-04   -5.5753580E-10
 -8.5000001E-04   -3.4541472E-10
 -8.4950001E-04   -1.0311516E-10
 -8.4900000E-04    1.5190008E-10
 -8.4850000E-04    3.9519568E-10
 -8.4800000E-04    6.2577565E-10
 -8.4749999E-04    8.0001678E-10
 -8.4699999E-04    9.3388985E-10
 -8.4649998E-04    1.0117887E-09
 -8.4599998E-04    1.0411433E-09
 -8.4549998E-04    1.0172617E-09
 -8.4499997E-04    9.0969421E-10
 -8.4450003E-04    7.4712725E-10
 -8.4400002E-04    5.1952392E-10
 -8.4350002E-04    2.2993601E-10
 -8.4300002E-04   -1.1444790E-10
 -8.4250001E-04   -4.8839993E-10
 -8.4200001E-04   -8.7801766E-10
 -8.4150000E-04   -1.2530548E-09
 -8.4100000E-04   -1.5727110E-09
 -8.4050000E-04   -1.8339769E-09
 -8.3999999E-04   -2.0057245E-09
 -8.3949999E-04   -2.0731699E-09
 -8.3899999E-04   -2.0201725E-09
 -8.3849998E-04   -1.8806408E-09
 -8.3799998E-04   -1.6179538E-09
 -8.3749997E-04   -1.2567968E-09
 -8.3700003E-04   -8.2104123E-10
 -8.3650002E-04   -3.2235170E-10
 -8.3600002E-04    2.0048063E-10
 -8.3550002E-04    7.1151285E-10
 -8.3500001E-04    1.1851102E-09
 -8.3450001E-04    1.5823458E-09
 -8.3400001E-04    1.8653779E-09
 -8.3350000E-04    2.0230844E-09
 -8.3300000E-04    2.0202007E-09
 -8.3249999E-04    1.8567267E-09
 -8.3199999E-04    1.5478534E-09
 -8.3149999E-04    1.0805600E-09
 -8.3099998E-04    4.8143056E-10
 -8.3049998E-04   -2.2403562E-10
 -8.2999998E-04   -9.4469277E-10
 -8.2949997E-04   -1.6222184E-09
 -8.2900003E-04   -2.1965267E-09
 -8.2850002E-04   -2.6273896E-09
 -8.2800002E-04   -2.8618552E-09
 -8.2750001E-04   -2.8744240E-09
 -8.2700001E-04   -2.6634686E-09
 -8.2650001E-04   -2.2761892E-09
 -8.2600000E-04   -1.6968527E-09
 -8.2550000E-04   -1.0263701E-09
 -8.2500000E-04   -2.8101776E-10
 -8.2449999E-04    4.6324955E-10
 -8.2399999E-04    1.1869005E-09
 -8.2349998E-04    1.8270010E-09
 -8.2299998E-04    2.3417761E-09
 -8.2249998E-04    2.6985378E-09
 -8.2199997E-04    2.8578171E-09
 -8.2150003E-04    2.8131033E-09
 -8.2100002E-04    2.5860978E-09
 -8.2050002E-04    2.2050124E-09
 -8.2000002E-04    1.6579114E-09
 -8.1950001E-04    1.0240048E-09
 -8.1900001E-04    3.2933434E-10
 -8.1850000E-04   -3.6316600E-10
 -8.1800000E-04   -1.0708573E-09
 -8.1750000E-04   -1.7091042E-09
 -8.1699999E-04   -2.2334188E-09
 -8.1649999E-04   -2.6036535E-09
 -8.1599999E-04   -2.8144678E-09
 -8.1549998E-04   -2.8429905E-09
 -8.1499998E-04   -2.6843388E-09
 -8.1449997E-04   -2.3336297E-09
 -8.1400003E-04   -1.8212453E-09
 -8.1350002E-04   -1.2177149E-09
 -8.1300002E-04   -5.1869853E-10
 -8.1250002E-04    3.1920672E-10
 -8.1200001E-04    1.1777282E-09
 -8.1150001E-04    1.9993573E-09
 -8.1100001E-04    2.7797538E-09
 -8.1050000E-04    3.4749723E-09
 -8.1000000E-04    4.0209938E-09
 -8.0949999E-04    4.4077813E-09
 -8.0899999E-04    4.5927457E-09
 -8.0849999E-04    4.5758877E-09
 -8.0799998E-04    4.3344199E-09
 -8.0749998E-04    3.8477266E-09
 -8.0699997E-04    3.0962761E-09
 -8.0649997E-04    2.1451729E-09
 -8.0600003E-04    1.0508406E-09
 -8.0550002E-04   -9.8830277E-11
 -8.0500002E-04   -1.2419907E-09
 -8.0450001E-04   -2.3276425E-09
 -8.0400001E-04   -3.3123828E-09
 -8.0350001E-04   -4.1112371E-09
 -8.0300000E-04   -4.6833120E-09
 -8.0250000E-04   -4.9710986E-09
 -8.0200000E-04   -4.9594062E-09
 -8.0149999E-04   -4.6525748E-09
 -8.0099999E-04   -4.0614552E-09
 -8.0049998E-04   -3.1708565E-09
 -7.9999998E-04   -2.1044766E-09
 -7.9949998E-04   -8.7099594E-10
 -7.9899997E-04    4.8618254E-10
 -7.9850003E-04    1.8097239E-09
 -7.9800002E-04    3.0594807E-09
 -7.9750002E-04    4.0547885E-09
 -7.9700002E-04    4.7316284E-09
 -7.9650001E-04    5.0276090E-09
 -7.9600001E-04    4.9264544E-09
 -7.9550000E-04    4.3587196E-09
 -7.9500000E-04    3.4198913E-09
 -7.9450000E-04    2.1729032E-09
 -7.9399999E-04    6.6115824E-10
 -7.9349999E-04   -9.0918040E-10
 -7.9299998E-04   -2.4513072E-09
 -7.9249998E-04   -3.8306736E-09
 -7.9199998E-04   -4.9485380E-09
 -7.9149997E-04   -5.6280345E-09
 -7.9100003E-04   -5.7595710E-09
 -7.9050002E-04   -5.3986215E-09
 -7.9000002E-04   -4.5738049E-09
 -7.8950002E-04   -3.3193006E-09
 -7.8900001E-04   -1.7479561E-09
 -7.8850001E-04    7.9464768E-11
 -7.8800000E-04    2.0284134E-09
 -7.8750000E-04    3.9382995E-09
 -7.8700000E-04    5.6941061E-09
 -7.8649999E-04    7.1873258E-09
 -7.8599999E-04    8.3485139E-09
 -7.8549999E-04    8.9801881E-09
 -7.8499998E-04    9.0845189E-09
 -7.8449998E-04    8.5464888E-09
 -7.8399997E-04    7.5066140E-09
 -7.8350003E-04    5.9461689E-09
 -7.8300002E-04    3.9549510E-09
 -7.8250002E-04    1.7629953E-09
 -7.8200002E-04   -4.5934234E-10
 -7.8150001E-04   -2.5948743E-09
 -7.8100001E-04   -4.5654756E-09
 -7.8050001E-04   -6.1020491E-09
 -7.8000000E-04   -7.1959141E-09
 -7.7950000E-04   -7.9468974E-09
 -7.7899999E-04   -8.3658493E-09
 -7.7849999E-04   -8.4592804E-09
 -7.7799999E-04   -8.2467224E-09
 -7.7749998E-04   -7.7455358E-09
 -7.7699998E-04   -7.0891839E-09
 -7.7649998E-04   -6.2966556E-09
 -7.7599997E-04   -5.4137956E-09
 -7.7550003E-04   -4.5450417E-09
 -7.7500002E-04   -3.6600114E-09
 -7.7450002E-04   -2.8162139E-09
 -7.7400001E-04   -2.1047948E-09
 -7.7350001E-04   -1.6017090E-09
 -7.7300001E-04   -1.0487100E-09
 -7.7250000E-04   -6.8668332E-10
 -7.7200000E-04   -2.9861499E-10
 -7.7150000E-04   -5.3775817E-11
 -7.7099999E-04    1.4332030E-10
 -7.7049999E-04    3.4692682E-10
 -7.6999998E-04    5.4402294E-10
 -7.6949998E-04    6.2935690E-10
 -7.6899998E-04    6.0618394E-10
 -7.6849997E-04    4.1584247E-10
 -7.6800003E-04   -5.0106641E-11
 -7.6750002E-04   -6.5928490E-10
 -7.6700002E-04   -1.5419006E-09
 -7.6650002E-04   -2.4505580E-09
 -7.6600001E-04   -3.3027918E-09
 -7.6550001E-04   -3.9683936E-09
 -7.6500000E-04   -4.3171551E-09
 -7.6450000E-04   -4.2188679E-09
 -7.6400000E-04   -3.6735324E-09
 -7.6349999E-04   -2.5813218E-09
 -7.6299999E-04   -9.0317376E-10
 -7.6249999E-04    1.3240196E-09
 -7.6199998E-04    4.0112820E-09
 -7.6149998E-04    6.9416002E-09
 -7.6099997E-04    9.9706599E-09
 -7.6050003E-04    1.2819598E-08
 -7.6000002E-04    1.5290931E-08
 -7.5950002E-04    1.7115564E-08
 -7.5900002E-04    1.7907210E-08
 -7.5850001E-04    1.7618127E-08
 -7.5800001E-04    1.6118108E-08
 -7.5750001E-04    1.3450553E-08
 -7.5700000E-04    9.7630322E-09
 -7.5650000E-04    5.2117963E-09
 -7.5599999E-04    1.1689760E-11
 -7.5549999E-04   -5.5649361E-09
 -7.5499999E-04   -1.1299304E-08
 -7.5449998E-04   -1.6664748E-08
 -7.5399998E-04   -2.1355277E-08
 -7.5349997E-04   -2.5086605E-08
 -7.5299997E-04   -2.7646058E-08
 -7.5250003E-04   -2.8816622E-08
 -7.5200002E-04   -2.8225033E-08
 -7.5150002E-04   -2.5966779E-08
 -7.5100001E-04   -2.2345677E-08
 -7.5050001E-04   -1.7392111E-08
 -7.5000001E-04   -1.1240627E-08
 -7.4950000E-04   -4.3122337E-09
 -7.4900000E-04    2.9742324E-09
 -7.4850000E-04    1.0187049E-08
 -7.4799999E-04    1.6976688E-08
 -7.4749999E-04    2.2972058E-08
 -7.4699998E-04    2.7838954E-08
 -7.4649998E-04    3.1377727E-08
 -7.4599998E-04    3.3206430E-08