 -1.2000001E-03    1.0000000E-24
 -1.1995001E-03    1.0000000E-24
 -1.1990000E-03    1.0000000E-24
 -1.1985000E-03    1.0000000E-24
 -1.1980000E-03    1.0000000E-24
 -1.1975000E-03    1.0000000E-24
 -1.1970000E-03    1.0000000E-24
 -1.1965000E-03    1.0000000E-24
 -1.1960000E-03    1.0000001E-24
 -1.1955000E-03    1.0000001E-24
 -1.1950000E-03    1.0000001E-24
 -1.1945000E-03    1.0000001E-24
 -1.1940000E-03    1.0000001E-24
 -1.1935000E-03    1.0000001E-24
 -1.1930000E-03    1.0000001E-24
 -1.1925000E-03    1.0000001E-24
 -1.1920000E-03    1.0000001E-24
 -1.1915000E-03    1.0000001E-24
 -1.1910000E-03    1.0000001E-24
 -1.1905000E-03    1.0000001E-24
 -1.1900000E-03    1.0000001E-24
 -1.1895000E-03    1.0000001E-24
 -1.1890000E-03    1.0000001E-24
 -1.1885000E-03    1.0000001E-24
 -1.1880000E-03    1.0000001E-24
 -1.1875000E-03    1.0000001E-24
 -1.1870000E-03    1.0000002E-24
 -1.1865000E-03    1.0000002E-24
 -1.1860000E-03    1.0000002E-24
 -1.1854999E-03    1.0000002E-24
 -1.1849999E-03    1.0000002E-24
 -1.1845001E-03    1.0000002E-24
 -1.1840001E-03    1.0000002E-24
 -1.1835000E-03    1.0000002E-24
 -1.1830000E-03    1.0000002E-24
 -1.1825000E-03    1.0000002E-24
 -1.1820000E-03    1.0000002E-24
 -1.1815000E-03    1.0000001E-24
 -1.1810000E-03    1.0000001E-24
 -1.1805000E-03    1.0000001E-24
 -1.1800000E-03    1.0000001E-24
 -1.1795000E-03    1.0000001E-24
 -1.1790000E-03    1.0000001E-24
 -1.1785000E-03    1.0000001E-24
 -1.1780000E-03    1.0000001E-24
 -1.1775000E-03    1.0000001E-24
 -1.1770000E-03    1.0000001E-24
 -1.1765000E-03    1.0000001E-24
 -1.1760000E-03    1.0000001E-24
 -1.1755000E-03    1.0000001E-24
 -1.1750000E-03    1.0000001E-24
 -1.1745000E-03    1.0000001E-24
 -1.1740000E-03    1.0000001E-24
 -1.1735000E-03    1.0000001E-24
 -1.1730000E-03    1.0000001E-24
 -1.1725000E-03    1.0000001E-24
 -1.1720000E-03    1.0000001E-24
 -1.1715000E-03    1.0000001E-24
 -1.1710000E-03    1.0000001E-24
 -1.1704999E-03    1.0000001E-24
 -1.1699999E-03    1.0000001E-24
 -1.1695001E-03    1.0000001E-24
 -1.1690001E-03    1.0000001E-24
 -1.1685000E-03    1.0000002E-24
 -1.1680000E-03    1.0000005E-24
 -1.1675000E-03    1.0000011E-24
 -1.1670000E-03    1.0000023E-24
 -1.1665000E-03    1.0000043E-24
 -1.1660000E-03    1.0000074E-24
 -1.1655000E-03    1.0000122E-24
 -1.1650000E-03    1.0000192E-24
 -1.1645000E-03    1.0000289E-24
 -1.1640000E-03    1.0000413E-24
 -1.1635000E-03    1.0000561E-24
 -1.1630000E-03    1.0000714E-24
 -1.1625000E-03    1.0000831E-24
 -1.1620000E-03    1.0000837E-24
 -1.1615000E-03    1.0000603E-24
 -1.1610000E-03    9.9999262E-25
 -1.1605000E-03    9.9985092E-25
 -1.1600000E-03    9.9959395E-25
 -1.1595000E-03    9.9916787E-25
 -1.1590000E-03    9.9850789E-25
 -1.1585000E-03    9.9754351E-25
 -1.1580000E-03    9.9621053E-25
 -1.1575000E-03    9.9447188E-25
 -1.1570000E-03    9.9235270E-25
 -1.1565000E-03    9.8999046E-25
 -1.1560000E-03    9.8770483E-25
 -1.1555000E-03    9.8608836E-25
 -1.1549999E-03    9.8611232E-25
 -1.1544999E-03    9.8924262E-25
 -1.1540001E-03    9.9754499E-25
 -1.1535001E-03    1.0137505E-24
 -1.1530000E-03    1.0412369E-24
 -1.1525000E-03    1.0838641E-24
 -1.1520000E-03    1.1455820E-24
 -1.1515000E-03    1.2297198E-24
 -1.1510000E-03    1.3378508E-24
 -1.1505000E-03    1.4681448E-24
 -1.1500000E-03    1.6131387E-24
 -1.1495000E-03    1.7569305E-24
 -1.1490000E-03    1.8719032E-24
 -1.1485000E-03    1.9152458E-24
 -1.1480000E-03    1.8257608E-24
 -1.1475000E-03    1.5217211E-24
 -1.1470000E-03    9.0086101E-25
 -1.1465000E-03   -1.5607222E-25
 -1.1460000E-03   -1.7764714E-24
 -1.1455000E-03   -4.0797874E-24
 -1.1450000E-03   -7.1522563E-24
 -1.1445000E-03   -1.1010805E-23
 -1.1440000E-03   -1.5555266E-23
 -1.1435000E-03   -2.0509416E-23
 -1.1430000E-03   -2.5353491E-23
 -1.1425000E-03   -2.9253723E-23
 -1.1420000E-03   -3.0998251E-23
 -1.1415000E-03   -2.8953152E-23
 -1.1410000E-03   -2.1057216E-23
 -1.1405000E-03   -4.8786677E-24
 -1.1399999E-03    2.2239242E-23
 -1.1394999E-03    6.2915254E-23
 -1.1390001E-03    1.1932300E-22
 -1.1385001E-03    1.9261985E-22
 -1.1380001E-03    2.8220523E-22
 -1.1375000E-03    3.8482258E-22
 -1.1370000E-03    4.9355071E-22
 -1.1365000E-03    5.9676805E-22
 -1.1360000E-03    6.7722197E-22
 -1.1355000E-03    7.1138810E-22
 -1.1350000E-03    6.6935663E-22
 -1.1345000E-03    5.1553057E-22
 -1.1340000E-03    2.1044947E-22
 -1.1335000E-03   -2.8594615E-22
 -1.1330000E-03   -1.0093357E-21
 -1.1325000E-03   -1.9841492E-21
 -1.1320000E-03   -3.2147985E-21
 -1.1315000E-03   -4.6752499E-21
 -1.1310000E-03   -6.2975029E-21
 -1.1305000E-03   -7.9599518E-21
 -1.1300000E-03   -9.4770632E-21
 -1.1295000E-03   -1.0592286E-20
 -1.1290000E-03   -1.0976566E-20
 -1.1285000E-03   -1.0235176E-20
 -1.1280000E-03   -7.9257231E-21
 -1.1275000E-03   -3.5900721E-21
 -1.1270000E-03    3.1976686E-21
 -1.1265000E-03    1.2765942E-20
 -1.1260000E-03    2.5263844E-20
 -1.1255000E-03    4.0565260E-20
 -1.1250000E-03    5.8164614E-20
 -1.1244999E-03    7.7073135E-20
 -1.1239999E-03    9.5728035E-20
 -1.1235001E-03    1.1193063E-19
 -1.1230001E-03    1.2283225E-19
 -1.1225000E-03    1.2498894E-19
 -1.1220000E-03    1.1450584E-19
 -1.1215000E-03    8.7290225E-20
 -1.1210000E-03    3.9426976E-20
 -1.1205000E-03   -3.2319013E-20
 -1.1200000E-03   -1.2988091E-19
 -1.1195000E-03   -2.5317292E-19
 -1.1190000E-03   -3.9932209E-19
 -1.1185000E-03   -5.6191496E-19
 -1.1180000E-03   -7.3034723E-19
 -1.1175000E-03   -8.8938594E-19
 -1.1170000E-03   -1.0190677E-18
 -1.1165000E-03   -1.0950667E-18
 -1.1160000E-03   -1.0896580E-18
 -1.1155000E-03   -9.7338479E-19
 -1.1150000E-03   -7.1749507E-19
 -1.1145000E-03   -2.9715967E-19
 -1.1140000E-03    3.0460450E-19
 -1.1135000E-03    1.0924763E-18
 -1.1130000E-03    2.0541242E-18
 -1.1125000E-03    3.1556589E-18
 -1.1120000E-03    4.3377707E-18
 -1.1115000E-03    5.5131716E-18
 -1.1110000E-03    6.5660315E-18
 -1.1105000E-03    7.3541071E-18
 -1.1100000E-03    7.7142028E-18
 -1.1094999E-03    7.4714717E-18
 -1.1089999E-03    6.4528041E-18
 -1.1084999E-03    4.5042458E-18
 -1.1080001E-03    1.5119269E-18
 -1.1075001E-03   -2.5745087E-18
 -1.1070000E-03   -7.7175480E-18
 -1.1065000E-03   -1.3768654E-17
 -1.1060000E-03   -2.0448949E-17
 -1.1055000E-03   -2.7336767E-17
 -1.1050000E-03   -3.3865261E-17
 -1.1045000E-03   -3.9333252E-17
 -1.1040000E-03   -4.2931964E-17
 -1.1035000E-03   -4.3789674E-17
 -1.1030000E-03   -4.1034892E-17
 -1.1025000E-03   -3.3877235E-17
 -1.1020000E-03   -2.1703112E-17
 -1.1015000E-03   -4.1811412E-18
 -1.1010000E-03    1.8630018E-17
 -1.1005000E-03    4.6181050E-17
 -1.1000000E-03    7.7349877E-17
 -1.0995000E-03    1.1039073E-16
 -1.0990000E-03    1.4292717E-16
 -1.0985000E-03    1.7200124E-16
 -1.0980000E-03    1.9418811E-16
 -1.0975000E-03    2.0578278E-16
 -1.0970000E-03    2.0305904E-16
 -1.0965000E-03    1.8259526E-16
 -1.0960000E-03    1.4165326E-16
 -1.0955000E-03    7.8588683E-17
 -1.0950000E-03   -6.7369589E-18
 -1.0945000E-03   -1.1257969E-16
 -1.0939999E-03   -2.3501429E-16
 -1.0934999E-03   -3.6775894E-16
 -1.0930001E-03   -5.0216703E-16
 -1.0925001E-03   -6.2742605E-16
 -1.0920000E-03   -7.3099245E-16
 -1.0915000E-03   -7.9927696E-16
 -1.0910000E-03   -8.1857492E-16
 -1.0905000E-03   -7.7621374E-16
 -1.0900000E-03   -6.6186292E-16
 -1.0895000E-03   -4.6892602E-16
 -1.0890000E-03   -1.9591034E-16
 -1.0885000E-03    1.5235158E-16
 -1.0880000E-03    5.6376597E-16
 -1.0875000E-03    1.0184688E-15
 -1.0870000E-03    1.4888764E-15
 -1.0865000E-03    1.9404032E-15
 -1.0860000E-03    2.3329225E-15
 -1.0855000E-03    2.6229879E-15
 -1.0850000E-03    2.7667772E-15
 -1.0845000E-03    2.7236467E-15
 -1.0840000E-03    2.4601062E-15
 -1.0835000E-03    1.9539589E-15
 -1.0830000E-03    1.1982837E-15
 -1.0825000E-03    2.0488920E-16
 -1.0820000E-03   -9.9314814E-16
 -1.0815000E-03   -2.3402447E-15
 -1.0810000E-03   -3.7587083E-15
 -1.0805000E-03   -5.1510361E-15
 -1.0800000E-03   -6.4042501E-15
 -1.0795000E-03   -7.3962722E-15
 -1.0790000E-03   -8.0041429E-15
 -1.0784999E-03   -8.1137388E-15
 -1.0779999E-03   -7.6304099E-15
 -1.0775001E-03   -6.4898271E-15
 -1.0770001E-03   -4.6681709E-15
 -1.0765000E-03   -2.1907167E-15
 -1.0760000E-03    8.6214407E-16
 -1.0755000E-03    4.3523534E-15
 -1.0750000E-03    8.0858595E-15
 -1.0745000E-03    1.1819028E-14
 -1.0740000E-03    1.5270008E-14
 -1.0735000E-03    1.8134889E-14
 -1.0730000E-03    2.0108032E-14
 -1.0725000E-03    2.0905613E-14
 -1.0720000E-03    2.0290910E-14
 -1.0715000E-03    1.8099581E-14
 -1.0710000E-03    1.4262932E-14
 -1.0705000E-03    8.8269964E-15
 -1.0700000E-03    1.9653750E-15
 -1.0695000E-03   -6.0160816E-15
 -1.0690000E-03   -1.4684229E-14
 -1.0685000E-03   -2.3494139E-14
 -1.0680000E-03   -3.1815388E-14
 -1.0675000E-03   -3.8968493E-14
 -1.0670000E-03   -4.4270035E-14
 -1.0665000E-03   -4.7084081E-14
 -1.0660000E-03   -4.6876772E-14
 -1.0655000E-03   -4.3270288E-14
 -1.0650000E-03   -3.6091918E-14
 -1.0645000E-03   -2.5413890E-14
 -1.0640000E-03   -1.1579708E-14
 -1.0634999E-03    4.7867742E-15
 -1.0629999E-03    2.2792433E-14
 -1.0625001E-03    4.1307886E-14
 -1.0620001E-03    5.9022794E-14
 -1.0615001E-03    7.4522148E-14
 -1.0610000E-03    8.6380616E-14
 -1.0605000E-03    9.3270159E-14
 -1.0600000E-03    9.4074664E-14
 -1.0595000E-03    8.8003864E-14
 -1.0590000E-03    7.4697871E-14
 -1.0585000E-03    5.4313162E-14
 -1.0580000E-03    2.7580756E-14
 -1.0575000E-03   -4.1717338E-15
 -1.0570000E-03   -3.9041415E-14
 -1.0565000E-03   -7.4619645E-14
 -1.0560000E-03   -1.0811201E-13
 -1.0555000E-03   -1.3650767E-13
 -1.0550000E-03   -1.5679270E-13
 -1.0545000E-03   -1.6619854E-13
 -1.0540000E-03   -1.6247159E-13
 -1.0535000E-03   -1.4414647E-13
 -1.0530000E-03   -1.1080139E-13
 -1.0525000E-03   -6.3271986E-14
 -1.0520000E-03   -3.7977031E-15
 -1.0515000E-03    6.3924065E-14
 -1.0510000E-03    1.3479909E-13
 -1.0505000E-03    2.0253063E-13
 -1.0500000E-03    2.5995791E-13
 -1.0495000E-03    2.9953934E-13
 -1.0490000E-03    3.1396982E-13
 -1.0485000E-03    2.9690559E-13
 -1.0479999E-03    2.4375705E-13
 -1.0474999E-03    1.5249233E-13
 -1.0470001E-03    2.4382582E-14
 -1.0465001E-03   -1.3539339E-13
 -1.0460000E-03   -3.1737167E-13
 -1.0455000E-03   -5.0774088E-13
 -1.0450000E-03   -6.8867378E-13
 -1.0445000E-03   -8.3911383E-13
 -1.0440000E-03   -9.3605082E-13
 -1.0435000E-03   -9.5628019E-13
 -1.0430000E-03   -8.7859521E-13
 -1.0425000E-03   -6.8630756E-13
 -1.0420000E-03   -3.6993572E-13
 -1.0415000E-03    7.0153898E-14
 -1.0410000E-03    6.2141568E-13
 -1.0405000E-03    1.2573979E-12
 -1.0400000E-03    1.9369291E-12
 -1.0395000E-03    2.6045106E-12
 -1.0390000E-03    3.1921638E-12
 -1.0385000E-03    3.6229023E-12
 -1.0380000E-03    3.8158769E-12
 -1.0375000E-03    3.6931018E-12
 -1.0370000E-03    3.1874961E-12
 -1.0365000E-03    2.2517767E-12
 -1.0360000E-03    8.6757251E-13
 -1.0355000E-03   -9.4606018E-13
 -1.0350000E-03   -3.1256521E-12
 -1.0345000E-03   -5.5588750E-12
 -1.0340000E-03   -8.0836267E-12
 -1.0335000E-03   -1.0491530E-11
 -1.0329999E-03   -1.2536512E-11
 -1.0324999E-03   -1.3948784E-11
 -1.0319999E-03   -1.4454151E-11
 -1.0315001E-03   -1.3797997E-11
 -1.0310001E-03   -1.1772778E-11
 -1.0305000E-03   -8.2472319E-12
 -1.0300000E-03   -3.1950085E-12
 -1.0295000E-03    3.2800535E-12
 -1.0290000E-03    1.0925018E-11
 -1.0285000E-03    1.9328393E-11
 -1.0280000E-03    2.7922957E-11
 -1.0275000E-03    3.6003187E-11
 -1.0270000E-03    4.2758741E-11
 -1.0265000E-03    4.7324214E-11
 -1.0260000E-03    4.8844099E-11
 -1.0255000E-03    4.6550069E-11
 -1.0250000E-03    3.9846220E-11
 -1.0245000E-03    2.8396178E-11
 -1.0240000E-03    1.2204668E-11
 -1.0235000E-03   -8.3147898E-12
 -1.0230000E-03   -3.2294840E-11
 -1.0225000E-03   -5.8400229E-11
 -1.0220000E-03   -8.4851959E-11
 -1.0215000E-03   -1.0949484E-10
 -1.0210000E-03   -1.2991068E-10
 -1.0205000E-03   -1.4357569E-10
 -1.0200000E-03   -1.4805678E-10
 -1.0195000E-03   -1.4123634E-10
 -1.0190000E-03   -1.2155180E-10
 -1.0185000E-03   -8.8230846E-11
 -1.0180000E-03   -4.1502031E-11
 -1.0174999E-03    1.7242617E-11
 -1.0169999E-03    8.5355320E-11
 -1.0165001E-03    1.5893112E-10
 -1.0160001E-03    2.3291336E-10
 -1.0155000E-03    3.0131556E-10
 -1.0150000E-03    3.5756104E-10
 -1.0145000E-03    3.9493095E-10
 -1.0140000E-03    4.0710124E-10
 -1.0135000E-03    3.8873754E-10
 -1.0130000E-03    3.3610695E-10
 -1.0125000E-03    2.4765739E-10
 -1.0120000E-03    1.2451036E-10
 -1.0115000E-03   -2.9189335E-11
 -1.0110000E-03   -2.0611966E-10
 -1.0105000E-03   -3.9586778E-10
 -1.0100000E-03   -5.8528793E-10
 -1.0095000E-03   -7.5914408E-10
 -1.0090000E-03   -9.0102803E-10
 -1.0085000E-03   -9.9451880E-10
 -1.0080000E-03   -1.0245245E-09
 -1.0075000E-03   -9.7872133E-10
 -1.0070000E-03   -8.4898494E-10
 -1.0065000E-03   -6.3269467E-10
 -1.0060000E-03   -3.3378078E-10
 -1.0055000E-03    3.6609077E-11
 -1.0050000E-03    4.5993620E-10
 -1.0045000E-03    9.1067737E-10
 -1.0040000E-03    1.3573616E-09
 -1.0035000E-03    1.7642436E-09
 -1.0030000E-03    2.0935669E-09
 -1.0025000E-03    2.3083127E-09
 -1.0019999E-03    2.3752798E-09
 -1.0014999E-03    2.2682858E-09
 -1.0010001E-03    1.9712463E-09
 -1.0005001E-03    1.4808611E-09
 -1.0000000E-03    8.0863544E-10
 -9.9950004E-04   -1.8020720E-11
 -9.9900004E-04   -9.5582697E-10
 -9.9850004E-04   -1.9469502E-09
 -9.9800003E-04   -2.9216676E-09
 -9.9750003E-04   -3.8023349E-09
 -9.9700002E-04   -4.5085060E-09
 -9.9650002E-04   -4.9629412E-09
 -9.9600002E-04   -5.0981264E-09
 -9.9550001E-04   -4.8628417E-09
 -9.9500001E-04   -4.2282591E-09
 -9.9450001E-04   -3.1930127E-09
 -9.9400000E-04   -1.7867103E-09
 -9.9350000E-04   -7.1410142E-11
 -9.9299999E-04    1.8592990E-09
 -9.9249999E-04    3.8838341E-09
 -9.9199999E-04    5.8587926E-09
 -9.9149998E-04    7.6275875E-09
 -9.9099998E-04    9.0311314E-09
 -9.9049998E-04    9.9199688E-09
 -9.8999997E-04    1.0167028E-08
 -9.8949997E-04    9.6800763E-09
 -9.8899996E-04    8.4128269E-09
 -9.8849996E-04    6.3736785E-09
 -9.8799996E-04    3.6311214E-09
 -9.8749995E-04    3.1502331E-10
 -9.8699995E-04   -3.3867598E-09
 -9.8649994E-04   -7.2366761E-09
 -9.8600006E-04   -1.0960544E-08
 -9.8550005E-04   -1.4264851E-08
 -9.8500005E-04   -1.6857367E-08
 -9.8450005E-04   -1.8469780E-08
 -9.8400004E-04   -1.8880781E-08
 -9.8350004E-04   -1.7937824E-08
 -9.8300003E-04   -1.5575685E-08
 -9.8250003E-04   -1.1830115E-08
 -9.8200003E-04   -6.8449499E-09
 -9.8150002E-04   -8.7155444E-10
 -9.8100002E-04    5.7401275E-09
 -9.8050002E-04    1.2558984E-08
 -9.8000001E-04    1.9098049E-08
 -9.7950001E-04    2.4846445E-08
 -9.7900000E-04    2.9306092E-08
 -9.7850000E-04    3.2030712E-08
 -9.7800000E-04    3.2664317E-08
 -9.7749999E-04    3.0976103E-08
 -9.7699999E-04    2.6888760E-08
 -9.7649998E-04    2.0497401E-08
 -9.7599998E-04    1.2076876E-08
 -9.7549998E-04    2.0759103E-09
 -9.7499997E-04   -8.9025320E-09
 -9.7450003E-04   -2.0134248E-08
 -9.7400002E-04   -3.0818672E-08
 -9.7350002E-04   -4.0133070E-08
 -9.7300002E-04   -4.7292602E-08
 -9.7250001E-04   -5.1611995E-08
 -9.7200001E-04   -5.2564260E-08
 -9.7150001E-04   -4.9831652E-08
 -9.7100000E-04   -4.3344393E-08
 -9.7050000E-04   -3.3303316E-08
 -9.6999999E-04   -2.0183620E-08
 -9.6949999E-04   -4.7180717E-09
 -9.6899999E-04    1.2140331E-08
 -9.6849998E-04    2.9274744E-08
 -9.6799998E-04    4.5476771E-08
 -9.6749997E-04    5.9530148E-08
 -9.6700003E-04    7.0300040E-08
 -9.6650003E-04    7.6821465E-08
 -9.6600002E-04    7.8380090E-08
 -9.6550002E-04    7.4578651E-08
 -9.6500001E-04    6.5383276E-08
 -9.6450001E-04    5.1145051E-08
 -9.6400001E-04    3.2593931E-08
 -9.6350000E-04    1.0804097E-08
 -9.6300000E-04   -1.2867925E-08
 -9.6249999E-04   -3.6868943E-08
 -9.6199999E-04   -5.9553049E-08
 -9.6149999E-04   -7.9296704E-08
 -9.6099998E-04   -9.4616617E-08
 -9.6049998E-04   -1.0428160E-07
 -9.5999998E-04   -1.0740958E-07
 -9.5949997E-04   -1.0354202E-07
 -9.5900003E-04   -9.2689305E-08
 -9.5850002E-04   -7.5342925E-08
 -9.5800002E-04   -5.2452560E-08
 -9.5750001E-04   -2.5369228E-08
 -9.5700001E-04    4.2420498E-09
 -9.5650001E-04    3.4513739E-08
 -9.5600000E-04    6.3503343E-08
 -9.5550000E-04    8.9327330E-08
 -9.5500000E-04    1.1029135E-07
 -9.5449999E-04    1.2500658E-07
 -9.5399999E-04    1.3248344E-07
 -9.5349998E-04    1.3219541E-07
 -9.5299998E-04    1.2410852E-07
 -9.5249998E-04    1.0867461E-07
 -9.5199997E-04    8.6789818E-08
 -9.5150003E-04    5.9722396E-08
 -9.5100002E-04    2.9016846E-08
 -9.5050002E-04   -3.6170869E-09
 -9.5000002E-04   -3.6420545E-08
 -9.4950001E-04   -6.7697002E-08
 -9.4900001E-04   -9.5909719E-08
 -9.4850000E-04   -1.1975780E-07
 -9.4800000E-04   -1.3822584E-07
 -9.4750000E-04   -1.5060517E-07
 -9.4699999E-04   -1.5648777E-07
 -9.4649999E-04   -1.5573720E-07
 -9.4599999E-04   -1.4844311E-07
 -9.4549998E-04   -1.3486812E-07
 -9.4499998E-04   -1.1539629E-07
 -9.4449997E-04   -9.0492271E-08
 -9.4400003E-04   -6.0678481E-08
 -9.4350002E-04   -2.6535341E-08
 -9.4300002E-04    1.1274218E-08
 -9.4250002E-04    5.1958377E-08
 -9.4200001E-04    9.4534897E-08
 -9.4150001E-04    1.3776454E-07
 -9.4100001E-04    1.8009246E-07
 -9.4050000E-04    2.1961185E-07
 -9.4000000E-04    2.5406410E-07
 -9.3949999E-04    2.8088783E-07
 -9.3899999E-04    2.9732448E-07
 -9.3849999E-04    3.0058439E-07
 -9.3799998E-04    2.8806869E-07
 -9.3749998E-04    2.5763632E-07
 -9.3699998E-04    2.0789749E-07
 -9.3649997E-04    1.3850874E-07
 -9.3600003E-04    5.0439578E-08
 -9.3550002E-04   -5.3821630E-08
 -9.3500002E-04   -1.7015488E-07
 -9.3450001E-04   -2.9281702E-07
 -9.3400001E-04   -4.1459322E-07
 -9.3350001E-04   -5.2710266E-07
 -9.3300000E-04   -6.2125679E-07
 -9.3250000E-04   -6.8785539E-07
 -9.3200000E-04   -7.1828805E-07
 -9.3149999E-04   -7.0529865E-07
 -9.3099999E-04   -6.4375422E-07
 -9.3049998E-04   -5.3135449E-07
 -9.2999998E-04   -3.6921315E-07
 -9.2949998E-04   -1.6224517E-07
 -9.2899997E-04    8.0699131E-08
 -9.2850003E-04    3.4699593E-07
 -9.2800002E-04    6.2073059E-07
 -9.2750002E-04    8.8350043E-07
 -9.2700002E-04    1.1155116E-06
 -9.2650001E-04    1.2969147E-06
 -9.2600001E-04    1.4092992E-06
 -9.2550000E-04    1.4372447E-06
 -9.2500000E-04    1.3698103E-06
 -9.2450000E-04    1.2018381E-06
 -9.2399999E-04    9.3494617E-07
 -9.2349999E-04    5.7810263E-07
 -9.2299999E-04    1.4769270E-07
 -9.2249998E-04   -3.3297658E-07
 -9.2199998E-04   -8.3474725E-07
 -9.2149997E-04   -1.3242289E-06
 -9.2100003E-04   -1.7658873E-06
 -9.2050002E-04   -2.1244832E-06
 -9.2000002E-04   -2.3677046E-06
 -9.1950002E-04   -2.4688009E-06
 -9.1900001E-04   -2.4090216E-06
 -9.1850001E-04   -2.1796511E-06
 -9.1800001E-04   -1.7834532E-06
 -9.1750000E-04   -1.2353659E-06
 -9.1700000E-04   -5.6233893E-07
 -9.1649999E-04    1.9774046E-07
 -9.1599999E-04    9.9801809E-07
 -9.1549999E-04    1.7854521E-06
 -9.1499998E-04    2.5042491E-06
 -9.1449998E-04    3.0997364E-06
 -9.1399997E-04    3.5224136E-06
 -9.1349997E-04    3.7318782E-06
 -9.1300003E-04    3.7003297E-06
 -9.1250002E-04    3.4153568E-06
 -9.1200002E-04    2.8817547E-06
 -9.1150001E-04    2.1221801E-06
 -9.1100001E-04    1.1765262E-06
 -9.1050001E-04    9.9996051E-08
 -9.1000000E-04   -1.0400529E-06
 -9.0950000E-04   -2.1683195E-06
 -9.0899999E-04   -3.2065659E-06
 -9.0849999E-04   -4.0790801E-06
 -9.0799999E-04   -4.7182143E-06
 -9.0749998E-04   -5.0695826E-06
 -9.0699998E-04   -5.0965168E-06
 -9.0649998E-04   -4.7834242E-06
 -9.0599997E-04   -4.1377393E-06
 -9.0550003E-04   -3.1902787E-06
 -9.0500002E-04   -1.9939150E-06
 -9.0450002E-04   -6.2060008E-07
 -9.0400001E-04    8.4309005E-07
 -9.0350001E-04    2.3016069E-06
 -9.0300001E-04    3.6568952E-06
 -9.0250000E-04    4.8152147E-06
 -9.0200000E-04    5.6938225E-06
 -9.0150000E-04    6.2270183E-06
 -9.0099999E-04    6.3710904E-06
 -9.0049999E-04    6.1077722E-06
 -8.9999998E-04    5.4459315E-06
 -8.9949998E-04    4.4213411E-06
 -8.9899998E-04    3.0945155E-06
 -8.9849997E-04    1.5467658E-06
 -8.9800003E-04   -1.2525629E-07
 -8.9750002E-04   -1.8161254E-06
 -8.9700002E-04   -3.4188333E-06
 -8.9650002E-04   -4.8320699E-06
 -8.9600001E-04   -5.9670501E-06
 -8.9550001E-04   -6.7533824E-06
 -8.9500000E-04   -7.1435461E-06
 -8.9450000E-04   -7.1156655E-06
 -8.9400000E-04   -6.6744014E-06
 -8.9349999E-04   -5.8499350E-06
 -8.9299999E-04   -4.6951741E-06
 -8.9249999E-04   -3.2814532E-06
 -8.9199998E-04   -1.6931142E-06
 -8.9149998E-04   -2.1437000E-08
 -8.9099997E-04    1.6415656E-06
 -8.9050003E-04    3.2089895E-06
 -8.9000002E-04    4.6040609E-06
 -8.8950002E-04    5.7639832E-06
 -8.8900002E-04    6.6423650E-06
 -8.8850001E-04    7.2101475E-06
 -8.8800001E-04    7.4550808E-06
 -8.8750001E-04    7.3799615E-06
 -8.8700000E-04    6.9999414E-06
 -8.8650000E-04    6.3393236E-06
 -8.8599999E-04    5.4282805E-06
 -8.8549999E-04    4.2999395E-06
 -8.8499999E-04    2.9881974E-06
 -8.8449998E-04    1.5265502E-06
 -8.8399998E-04   -5.1943726E-08
 -8.8349998E-04   -1.7135937E-06
 -8.8299997E-04   -3.4220932E-06
 -8.8250003E-04   -5.1359766E-06
 -8.8200002E-04   -6.8059817E-06
 -8.8150002E-04   -8.3728619E-06
 -8.8100001E-04   -9.7662041E-06
 -8.8050001E-04   -1.0904762E-05
 -8.8000001E-04   -1.1698682E-05
 -8.7950000E-04   -1.2053843E-05
 -8.7900000E-04   -1.1878288E-05
 -8.7850000E-04   -1.1090480E-05
 -8.7799999E-04   -9.6288622E-06
 -8.7749999E-04   -7.4619497E-06
 -8.7699998E-04   -4.5980264E-06
 -8.7649998E-04   -1.0933550E-06
 -8.7599998E-04    2.9421631E-06
 -8.7549997E-04    7.3429005E-06
 -8.7500003E-04    1.1889801E-05
 -8.7450002E-04    1.6317599E-05
 -8.7400002E-04    2.0327105E-05
 -8.7350002E-04    2.3602272E-05
 -8.7300001E-04    2.5831298E-05
 -8.7250001E-04    2.6730571E-05
 -8.7200000E-04    2.6069816E-05
 -8.7150000E-04    2.3696568E-05
 -8.7100000E-04    1.9557867E-05
 -8.7049999E-04    1.3717084E-05
 -8.6999999E-04    6.3639077E-06
 -8.6949999E-04   -2.1840826E-06
 -8.6899998E-04   -1.1489375E-05
 -8.6849998E-04   -2.1012456E-05
 -8.6799997E-04   -3.0139403E-05
 -8.6750003E-04   -3.8218062E-05
 -8.6700002E-04   -4.4600885E-05
 -8.6650002E-04   -4.8691854E-05
 -8.6600002E-04   -4.9994327E-05
 -8.6550001E-04   -4.8156246E-05
 -8.6500001E-04   -4.3009135E-05
 -8.6450001E-04   -3.4597277E-05
 -8.6400000E-04   -2.3194092E-05
 -8.6350000E-04   -9.3033686E-06
 -8.6299999E-04    6.3560938E-06
 -8.6249999E-04    2.2882643E-05
 -8.6199999E-04    3.9239789E-05
 -8.6149998E-04    5.4317788E-05
 -8.6099998E-04    6.7005436E-05
 -8.6049997E-04    7.6267563E-05
 -8.5999997E-04    8.1223043E-05
 -8.5950003E-04    8.1217819E-05
 -8.5900002E-04    7.5887117E-05
 -8.5850002E-04    6.5201748E-05
 -8.5800001E-04    4.9494050E-05
 -8.5750001E-04    2.9460190E-05
 -8.5700001E-04    6.1370456E-06
 -8.5650000E-04   -1.9146244E-05
 -8.5600000E-04   -4.4840344E-05
 -8.5549999E-04   -6.9267735E-05
 -8.5499999E-04   -9.0729380E-05
 -8.5449999E-04   -1.0761947E-04
 -8.5399998E-04   -1.1854059E-04
 -8.5349998E-04   -1.2241122E-04
 -8.5299998E-04   -1.1855776E-04
 -8.5249997E-04   -1.0678352E-04
 -8.5200003E-04   -8.7408858E-05
 -8.5150002E-04   -6.1278035E-05
 -8.5100002E-04   -2.9730558E-05
 -8.5050002E-04    5.4628213E-06
 -8.5000001E-04    4.2196734E-05
 -8.4950001E-04    7.8155448E-05
 -8.4900000E-04    1.1095742E-04
 -8.4850000E-04    1.3831125E-04
 -8.4800000E-04    1.5817283E-04
 -8.4749999E-04    1.6889288E-04
 -8.4699999E-04    1.6934468E-04
 -8.4649998E-04    1.5902208E-04
 -8.4599998E-04    1.3810000E-04
 -8.4549998E-04    1.0745206E-04
 -8.4499997E-04    6.8621986E-05
 -8.4450003E-04    2.3749380E-05
 -8.4400002E-04   -2.4547140E-05
 -8.4350002E-04   -7.3322975E-05
 -8.4300002E-04   -1.1948781E-04
 -8.4250001E-04   -1.6000195E-04
 -8.4200001E-04   -1.9207614E-04
 -8.4150000E-04   -2.1336161E-04
 -8.4100000E-04   -2.2211744E-04
 -8.4050000E-04   -2.1734337E-04
 -8.3999999E-04   -1.9886831E-04
 -8.3949999E-04   -1.6738725E-04
 -8.3899999E-04   -1.2444305E-04
 -8.3849998E-04   -7.2352406E-05
 -8.3799998E-04   -1.4079810E-05
 -8.3749997E-04    4.6933648E-05
 -8.3700003E-04    1.0697660E-04
 -8.3650002E-04    1.6229600E-04
 -8.3600002E-04    2.0933377E-04
 -8.3550002E-04    2.4495617E-04
 -8.3500001E-04    2.6666102E-04
 -8.3450001E-04    2.7274899E-04
 -8.3400001E-04    2.6244708E-04
 -8.3350000E-04    2.3597624E-04
 -8.3300000E-04    1.9455703E-04
 -8.3249999E-04    1.4035289E-04
 -8.3199999E-04    7.6353397E-05
 -8.3149999E-04    6.2043719E-06
 -8.3099998E-04   -6.6005188E-05
 -8.3049998E-04   -1.3598628E-04
 -8.2999998E-04   -1.9950802E-04
 -8.2949997E-04   -2.5265524E-04
 -8.2900003E-04   -2.9206896E-04
 -8.2850002E-04   -3.1515519E-04
 -8.2800002E-04   -3.2024889E-04
 -8.2750001E-04   -3.0672320E-04
 -8.2700001E-04   -2.7503670E-04
 -8.2650001E-04   -2.2671635E-04
 -8.2600000E-04   -1.6427701E-04
 -8.2550000E-04   -9.1082315E-05
 -8.2500000E-04   -1.1155667E-05
 -8.2449999E-04    7.1047289E-05
 -8.2399999E-04    1.5089133E-04
 -8.2349998E-04    2.2382422E-04
 -8.2299998E-04    2.8563428E-04
 -8.2249998E-04    3.3268787E-04
 -8.2199997E-04    3.6213390E-04
 -8.2150003E-04    3.7206386E-04
 -8.2100002E-04    3.6161946E-04
 -8.2050002E-04    3.3104248E-04
 -8.2000002E-04    2.8166501E-04
 -8.1950001E-04    2.1584159E-04
 -8.1900001E-04    1.3682795E-04
 -8.1850000E-04    4.8613572E-05
 -8.1800000E-04   -4.4282471E-05
 -8.1750000E-04   -1.3704142E-04
 -8.1699999E-04   -2.2478848E-04
 -8.1649999E-04   -3.0283805E-04
 -8.1599999E-04   -3.6692887E-04
 -8.1549998E-04   -4.1343810E-04
 -8.1499998E-04   -4.3956508E-04
 -8.1449997E-04   -4.4347651E-04
 -8.1400003E-04   -4.2440763E-04
 -8.1350002E-04   -3.8271514E-04
 -8.1300002E-04   -3.1988006E-04
 -8.1250002E-04   -2.3846020E-04
 -8.1200001E-04   -1.4199471E-04
 -8.1150001E-04   -3.4863195E-05
 -8.1100001E-04    7.7894932E-05
 -8.1050000E-04    1.9079496E-04
 -8.1000000E-04    2.9814773E-04
 -8.0949999E-04    3.9431817E-04
 -8.0899999E-04    4.7399206E-04
 -8.0849999E-04    5.3244090E-04
 -8.0799998E-04    5.6577392E-04
 -8.0749998E-04    5.7116547E-04
 -8.0699997E-04    5.4704718E-04
 -8.0649997E-04    4.9325376E-04
 -8.0600003E-04    4.1111151E-04
 -8.0550002E-04    3.0346224E-04
 -8.0500002E-04    1.7461421E-04
 -8.0450001E-04    3.0217532E-05
 -8.0400001E-04   -1.2293745E-04
 -8.0350001E-04   -2.7719568E-04
 -8.0300000E-04   -4.2437910E-04
 -8.0250000E-04   -5.5618305E-04
 -8.0200000E-04   -6.6461129E-04
 -8.0149999E-04   -7.4242940E-04
 -8.0099999E-04   -7.8361289E-04
 -8.0049998E-04   -7.8376551E-04
 -7.9999998E-04   -7.4047950E-04
 -7.9949998E-04   -6.5361330E-04
 -7.9899997E-04   -5.2546209E-04
 -7.9850003E-04   -3.6080190E-04
 -7.9800002E-04   -1.6679354E-04
 -7.9750002E-04    4.7260673E-05
 -7.9700002E-04    2.7030474E-04
 -7.9650001E-04    4.9005076E-04
 -7.9600001E-04    6.9361401E-04
 -7.9550000E-04    8.6823129E-04
 -7.9500000E-04    1.0020259E-03
 -7.9450000E-04    1.0847754E-03
 -7.9399999E-04    1.1086344E-03
 -7.9349999E-04    1.0687641E-03
 -7.9299998E-04    9.6382358E-04
 -7.9249998E-04    7.9627853E-04
 -7.9199998E-04    5.7249865E-04
 -7.9149997E-04    3.0261980E-04
 -7.9100003E-04    1.6336342E-07
 -7.9050002E-04   -3.1857903E-04
 -7.9000002E-04   -6.3537329E-04
 -7.8950002E-04   -9.3104434E-04
 -7.8900001E-04   -1.1865998E-03
 -7.8850001E-04   -1.3844112E-03
 -7.8800000E-04   -1.5093825E-03
 -7.8750000E-04   -1.5500288E-03
 -7.8700000E-04   -1.4993934E-03
 -7.8649999E-04   -1.3557322E-03
 -7.8599999E-04   -1.1229110E-03
 -7.8549999E-04   -8.1047002E-04
 -7.8499998E-04   -4.3333619E-04
 -7.8449998E-04   -1.1179756E-05
 -7.8399997E-04    4.3256226E-04
 -7.8350003E-04    8.7195146E-04
 -7.8300002E-04    1.2800365E-03
 -7.8250002E-04    1.6304805E-03
 -7.8200002E-04    1.8992302E-03
 -7.8150001E-04    2.0661231E-03
 -7.8100001E-04    2.1163246E-03
 -7.8050001E-04    2.0414980E-03
 -7.8000000E-04    1.8406166E-03
 -7.7950000E-04    1.5203530E-03
 -7.7899999E-04    1.0949981E-03
 -7.7849999E-04    5.8589870E-04
 -7.7799999E-04    2.0424581E-05
 -7.7749998E-04   -5.6948513E-04
 -7.7699998E-04   -1.1491225E-03
 -7.7649998E-04   -1.6830569E-03
 -7.7599997E-04   -2.1373047E-03
 -7.7550003E-04   -2.4814904E-03
 -7.7500002E-04   -2.6908603E-03
 -7.7450002E-04   -2.7480139E-03
 -7.7400001E-04   -2.6442369E-03
 -7.7350001E-04   -2.3803303E-03
 -7.7300001E-04   -1.9668757E-03
 -7.7250000E-04   -1.4238916E-03
 -7.7200000E-04   -7.7989092E-04
 -7.7150000E-04   -7.0378526E-05
 -7.7099999E-04    6.6413259E-04
 -7.7049999E-04    1.3804736E-03
 -7.6999998E-04    2.0354025E-03
 -7.6949998E-04    2.5882586E-03
 -7.6899998E-04    3.0035246E-03
 -7.6849997E-04    3.2531291E-03
 -7.6800003E-04    3.3183428E-03
 -7.6750002E-04    3.1911337E-03
 -7.6700002E-04    2.8748894E-03
 -7.6650002E-04    2.3844442E-03
 -7.6600001E-04    1.7453993E-03
 -7.6550001E-04    9.9276099E-04
 -7.6500000E-04    1.6897461E-04
 -7.6450000E-04   -6.7853375E-04
 -7.6400000E-04   -1.5001624E-03
 -7.6349999E-04   -2.2471140E-03
 -7.6299999E-04   -2.8743660E-03
 -7.6249999E-04   -3.3434494E-03
 -7.6199998E-04   -3.6248520E-03
 -7.6149998E-04   -3.6999031E-03
 -7.6099997E-04   -3.5620078E-03
 -7.6050003E-04   -3.2171549E-03
 -7.6000002E-04   -2.6836589E-03
 -7.5950002E-04   -1.9911472E-03
 -7.5900002E-04   -1.1788530E-03
 -7.5850001E-04   -2.9331632E-04
 -7.5800001E-04    6.1436777E-04
 -7.5750001E-04    1.4915837E-03
 -7.5700000E-04    2.2873252E-03
 -7.5650000E-04    2.9552316E-03
 -7.5599999E-04    3.4563376E-03
 -7.5549999E-04    3.7613790E-03
 -7.5499999E-04    3.8525052E-03
 -7.5449998E-04    3.7243045E-03
 -7.5399998E-04    3.3840816E-03
 -7.5349997E-04    2.8513775E-03
 -7.5299997E-04    2.1567654E-03
 -7.5250003E-04    1.3400060E-03
 -7.5200002E-04    4.4767841E-04
 -7.5150002E-04   -4.6956327E-04
 -7.5100001E-04   -1.3599398E-03
 -7.5050001E-04   -2.1735234E-03
 -7.5000001E-04   -2.8650658E-03
 -7.4950000E-04   -3.3965122E-03
 -7.4900000E-04   -3.7390615E-03
 -7.4850000E-04   -3.8746619E-03
 -7.4799999E-04   -3.7968699E-03
 -7.4749999E-04   -3.5110360E-03
 -7.4699998E-04   -3.0338280E-03
 -7.4649998E-04   -2.3921353E-03
 -7.4599998E-04   -1.6214345E-03